# vtk DataFile Version 3.0
Motion
ASCII
DATASET UNSTRUCTURED_GRID
POINTS 6400 float
-18.7235 14.8135 -2.67245
-18.632 16.4335 -1.58876
-18.7446 17.1553 -1.09226
-19.277 -16.1114 -0.414213
-19.293 -15.7417 -0.0491102
-19.3716 -14.5615 0.983814
-19.4707 -14.113 1.19249
19.9361 -12.6785 1.33708
19.6929 -11.8624 1.43136
19.0474 -10.3083 0.838442
18.9393 -9.18089 0.677306
19.2902 -7.58756 0.751353
19.4432 -6.78847 0.418155
19.5583 -5.58859 -0.650548
19.6402 -4.87156 -1.20826
19.9404 -3.33539 -1.70158
19.7453 -2.59975 -2.1771
19.5228 -1.03389 -2.67857
19.332 -0.535065 -2.87024
18.607 1.20954 -3.05894
18.712 1.75984 -2.89378
18.5431 3.17222 -1.90727
18.7671 3.5997 -1.57971
18.981 4.46502 -0.19076
18.9944 4.68135 0.535914
19.4515 5.23476 1.92497
-19.9543 5.54733 2.26077
19.8933 6.58082 3.40078
-19.9879 7.04781 3.52604
19.8113 8.46414 3.05098
-19.7766 8.75243 2.48156
-19.3428 9.01936 1.27194
-18.9084 9.0094 0.978408
-18.5021 9.25187 -1.2667
-18.4236 9.48504 -1.83648
-18.8964 10.4027 -2.87344
-18.7893 10.8811 -3.10673
-18.4812 12.1485 -3.30834
-18.8151 12.7196 -3.332
-19.0142 13.9514 -3.08131
-18.0078 15.1565 -2.19127
-17.5217 14.9504 -2.08715
-16.9919 15.6287 -1.19996
-16.6311 15.3064 -1.28379
-15.8945 15.3755 -0.833117
-15.2587 14.7426 -0.921533
-14.7571 15.3642 -0.390178
-14.2531 15.2775 -0.244203
-13.8524 15.4267 -0.0606352
-13.4509 15.0796 -0.0280331
-12.5486 15.7076 0.235608
-11.8091 15.1259 0.425333
-11.3702 15.739 0.362484
-10.9416 16.0227 0.323707
-10.8399 16.8926 0.0191618
-10.4097 16.974 -0.00289642
-9.9282 -17.0466 -0.293017
-9.38322 17.088 0.0617825
-8.89404 17.0823 0.180995
-8.37939 16.6484 0.603379
-7.98911 16.9486 0.568607
-7.26209 16.7971 0.908929
-6.95001 17.1689 0.826525
-6.47159 16.9045 1.06899
-6.12098 17.0135 1.07998
-5.45847 16.5618 1.19507
-5.26648 17.0522 1.0194
-4.47567 17.0239 0.648475
-4.16672 -16.8901 0.577236
-3.79198 -17.0459 0.272929
-3.51562 -16.6437 0.229949
-3.20201 -16.6655 -0.102882
-2.93375 -16.2561 -0.0828071
-2.63873 -16.2436 -0.446152
-2.37099 -15.8358 -0.374068
-2.02429 -15.7793 -0.702346
-1.63028 -15.1405 -0.413595
-1.11181 -15.4738 -1.17298
-0.662802 -15.1518 -1.14331
-0.215248 -15.6737 -1.65518
0.260286 -15.6314 -1.65159
0.711805 -15.9655 -1.70277
1.54451 -15.3362 -1.22014
1.9079 -15.5707 -1.07056
2.27214 -15.4309 -0.904599
2.60211 -15.6761 -0.666107
3.33622 -15.5148 -0.489356
3.53227 -16.008 0.248951
4.13156 -15.9573 0.820773
4.86368 -15.9285 1.60222
5.58053 -15.563 1.24864
6.17908 -15.6208 1.9233
6.67065 -15.601 2.16394
7.0169 -15.7553 2.61065
7.7808 -15.5097 2.48737
8.5101 -15.6883 2.95751
9.15235 -15.4855 2.92217
9.63444 -15.9412 3.40472
10.3128 -16.0906 3.57916
10.8545 -16.7348 3.69534
11.7779 -16.3306 3.68977
12.3276 -16.4813 3.66929
12.9119 -16.454 3.57795
13.563 -17.1155 3.43168
14.6542 -16.7295 2.89266
15.0069 -17.069 2.66955
15.6229 -17.1385 1.97673
16.009 16.8189 1.53619
16.189 17.0367 1.13921
16.7351 16.7445 -0.0626628
16.8969 16.8941 -0.552388
17.1101 16.5488 -0.914072
17.4546 16.7414 -1.6054
17.8954 16.5271 -1.99651
18.5666 16.8159 -2.31631
19.5594 15.892 -2.55385
19.9885 16.1147 -2.42638
-19.4409 15.406 -2.59647
-18.0663 15.881 -1.6706
-17.5742 16.2988 -0.898554
-16.934 15.9867 -0.808461
-16.4362 16.2457 -0.299427
-16.0485 16.1892 -0.208932
-15.7152 16.6631 0.246458
-15.3056 16.3373 0.0789761
-14.9535 16.5884 0.260436
-13.8543 15.8871 0.072897
-13.263 16.3594 0.208749
-12.7571 16.2669 0.208081
-12.6249 16.7794 0.175222
-11.7063 16.1893 0.226667
-11.6221 17.0419 0.00248603
-11.2317 17.2374 -0.100641
-10.9904 -16.7038 -0.425157
-10.2132 -16.6208 -0.503865
-9.73366 -16.2448 -0.677481
-8.66919 -16.818 -0.160999
-8.32247 -16.4756 -0.193839
-7.855 -16.5765 0.0534656
-7.5502 -16.2408 0.0781658
-7.09783 -16.3421 0.331391
-6.81442 -16.0276 0.395779
-6.30282 -16.2657 0.657359
-6.04084 -15.9948 0.742131
-5.19326 -16.3597 0.929762
-4.7647 -16.0496 1.00463
-4.28545 -16.0563 0.961444
-4.00184 -15.6115 1.07261
-3.54547 -15.5402 0.940697
-3.30731 -15.0988 1.09287
-2.65878 -14.8543 0.914105
-2.31017 -14.2478 1.15378
-1.9924 -14.59 0.581169
-1.64058 -14.3931 0.432972
-1.52328 -14.6855 -0.00448571
-1.18076 -14.5425 -0.164931
-0.679961 -14.7336 -0.73211
0.00605243 -14.0929 -0.591995
0.299037 -15.2096 -1.38181
0.759873 -14.719 -1.13518
1.15732 -14.6517 -1.13106
1.68496 -14.1822 -1.07668
2.4571 -15.0588 -0.991894
3.1608 -14.7658 -1.06593
3.49796 -15.0671 -0.803841
4.10018 -15.2698 -0.606534
4.72821 -15.6118 0.520644
5.18193 -15.4925 0.534512
5.59155 -15.4624 0.831152
6.40314 -15.242 0.571749
7.04769 -15.4446 2.03543
7.69561 -15.1679 1.6373
7.92718 -15.2557 2.08859
8.43821 -15.1153 2.05885
9.15457 -15.1684 2.50552
10.021 -15.0377 2.71631
10.7146 -15.503 3.33534
11.1236 -15.2558 3.19593
11.7384 -15.3403 3.28563
12.5693 -15.1037 3.04733
13.2022 -16.1076 3.43754
14.0848 -15.897 2.99659
14.5652 -16.1679 2.78755
15.4081 -16.2084 1.79242
15.695 -16.4946 1.45784
15.7969 -16.2881 0.959537
16.1721 -16.923 0.668836
16.4602 -16.994 -0.138889
16.6731 -17.1358 -0.6128
16.8726 -16.8046 -1.51847
17.1962 -17.1717 -1.68021
18.1984 -17.0625 -2.34179
18.6124 -17.3131 -2.35006
19.3345 -17.0165 -2.25511
-19.9323 16.5531 -2.22747
-19.4278 16.5968 -2.00547
-18.4006 17.1402 -0.76019
-17.9907 16.8929 -0.624982
-17.7329 17.1206 -0.161496
-16.6764 16.7932 0.11923
-16.1887 -17.1137 0.772347
-15.7132 -17.1445 0.77701
-15.3141 -16.9545 0.857969
-14.9675 17.3189 0.634326
-14.5493 -17.2561 0.585823
-13.8041 17.1084 0.363994
-13.4385 -16.743 0.349302
-13.0283 -17.0158 0.203541
-12.4922 -16.5258 -0.0672335
-11.9452 -17.1564 -0.0819162
-11.6886 -16.3137 -0.435243
-11.2202 -16.2493 -0.583747
-10.4272 -15.5838 -0.987313
-9.88604 -15.8317 -0.874035
-9.58557 -15.584 -0.948671
-8.86938 -15.7761 -0.69813
-8.82123 -15.2642 -0.868121
-8.34978 -15.2646 -0.653911
-7.83315 -14.7781 -0.467259
-7.4785 -14.9911 -0.179269
-6.96229 -14.4906 0.162244
-6.2364 -15.4562 0.649189
-5.95764 -15.1348 0.825369
-5.32992 -15.2954 1.0807
-4.92626 -14.7004 1.35035
-4.23226 -15.1793 1.27367
-3.72161 -14.0864 1.71341
-3.38315 -14.3439 1.55476
-3.03405 -13.9883 1.66399
-2.42368 -13.7792 1.53955
-1.86726 -13.1673 1.65802
-1.44568 -13.5 1.12438
-0.786374 -13.0042 0.987529
-0.935312 -14.1232 0.0598861
-0.258415 -13.6127 -0.0179513
0.133283 -13.6167 -0.289991
0.824903 -13.1857 -0.447996
1.01382 -13.5565 -0.712612
1.48091 -13.4465 -0.877951
1.80624 -13.7861 -1.05606
2.27635 -13.7977 -1.20862
2.98721 -14.3445 -1.27451
3.64682 -14.1577 -1.61654
4.39819 -14.9651 -1.00173
4.74336 -14.9938 -1.01459
5.30605 -15.3632 0.0827698
5.97412 -15.1694 -0.2573
6.45216 -15.1357 0.0220749
7.1279 -14.9899 -0.101329
7.94371 -14.9543 0.90691
8.37524 -14.8084 0.768481
8.70373 -14.8195 1.26705
9.75719 -14.5725 1.60452
10.4654 -14.6032 2.2217
11.0473 -14.5076 2.28749
11.3193 -14.7147 2.66556
12.2449 -14.5923 2.58446
12.7222 -14.8082 2.76776
13.2212 -14.8014 2.63918
13.898 -15.3777 2.79447
14.8711 -15.3742 1.85015
15.1838 -15.5474 1.47262
15.1814 -15.2315 0.952402
15.6089 -15.6587 0.455268
15.8251 -15.8495 0.00394892
16.2748 -16.5447 -0.274121
16.4595 -16.0887 -1.60025
16.7942 -16.396 -1.81398
17.8432 -16.3084 -2.4661
18.2368 -16.6 -2.43744
18.793 -16.1329 -2.4225
19.4847 -16.4705 -2.12726
19.7586 -16.4006 -1.8981
-19.4974 -17.3125 -1.63807
-18.9313 -16.4991 -0.330875
-18.4433 -16.4353 0.346489
-18.076 -16.8393 0.259404
-17.1158 -16.6383 1.03281
-16.7188 -16.5436 1.15312
-16.1795 -15.7726 1.54378
-15.0951 -16.2096 1.06618
-14.5911 -15.8773 0.950508
-14.1814 -16.0976 0.722106
-13.7964 -15.8729 0.524174
-13.4458 -16.1819 0.340873
-13.1366 -15.4634 0.0728168
-12.7261 -15.4181 -0.202943
-12.2025 -15.0411 -0.657373
-11.6792 -15.2083 -0.861803
-11.4684 -14.7106 -1.15423
-10.7011 -14.7878 -1.31229
-10.3715 -14.42 -1.45854
-9.85364 -14.4915 -1.39472
-9.5825 -14.1195 -1.46821
-8.8564 -14.4127 -1.14248
-8.15778 -14.0343 -0.826724
-7.79757 -14.2656 -0.531785
-7.37037 -13.644 -0.241545
-6.83651 -13.9888 0.25635
-6.48925 -13.9957 0.557903
-6.04633 -14.5972 0.841503
-5.25847 -13.7963 1.43879
-4.87455 -14.1879 1.50446
-4.43625 -13.5404 1.82042
-3.94829 -13.3544 1.97252
-3.66253 -12.5891 2.22529
-2.88514 -12.9171 2.11442
-2.11071 -12.4452 2.13062
-1.75245 -12.6874 1.8725
-0.751394 -12.0307 1.59497
-0.460096 -12.6154 1.00634
-0.0758869 -12.5633 0.696642
0.00851175 -12.8732 0.385457
0.970826 -12.1538 -0.0446883
1.25701 -12.4568 -0.425223
1.61207 -12.1424 -0.656031
2.17365 -12.6056 -1.16731
2.61198 -12.7343 -1.46028
2.95032 -13.2359 -1.6012
3.38413 -13.2732 -1.87518
3.91197 -13.8925 -1.91919
4.45776 -13.9937 -2.11745
5.01515 -14.7464 -1.44373
5.40468 -14.8198 -1.37098
5.84149 -15.061 -0.748398
6.87344 -14.7988 -1.08901
7.23084 -14.846 -0.66362
7.93249 -14.6738 -0.565789
8.37548 -14.7159 0.279236
8.73466 -14.558 0.136381
9.70966 -14.4002 1.01867
10.083 -14.2297 0.933143
10.8127 -14.1819 1.51545
11.5096 -13.8859 1.37541
11.8554 -13.995 1.70451
12.7254 -13.9705 1.79024
13.2486 -14.4735 2.29454
13.7895 -14.3623 1.87452
14.4947 -14.6311 1.40497
14.542 -14.3709 0.833701
14.8089 -14.6075 0.660892
15.4205 -15.0979 -0.372773
15.778 -15.6339 -0.403841
15.9254 -15.505 -1.27694
16.2389 -15.6744 -1.72223
16.7344 -15.4276 -2.44893
17.5211 -15.56 -2.68518
18.2211 -15.0837 -2.70384
18.4842 -15.4504 -2.55201
19.5144 -15.4288 -1.83439
19.7861 -15.8626 -1.67993
-19.9587 -15.8635 -1.33726
-18.6935 -15.6624 0.850147
-18.3635 -16.1324 0.742015
-17.8212 -16.0232 1.22809
-17.4155 -16.1098 1.33464
-16.8464 -15.0821 1.92237
-16.1255 -15.3027 1.7168
-15.8421 -14.909 1.7387
-14.8941 -15.1053 1.22022
-14.704 -14.618 1.12379
-14.3038 -14.694 0.828479
-14.1123 -14.2914 0.621806
-13.7017 -14.4945 0.313892
-12.9172 -14.2044 -0.427211
-12.509 -14.335 -0.698585
-12.4172 -13.9136 -0.918416
-12.0225 -13.9111 -1.17786
-11.654 -13.3531 -1.56186
-10.8882 -13.6685 -1.68188
-10.2952 -13.1474 -1.83145
-9.89661 -13.4735 -1.69496
-9.37649 -13.2525 -1.6196
-8.5597 -13.3329 -1.21912
-8.0246 -12.793 -0.879965
-7.66027 -13.0098 -0.538617
-6.87914 -12.827 0.215111
-6.38647 -13.5245 0.670045
-5.92321 -13.0199 1.10833
-5.47459 -12.9415 1.46491
[...]
CELL_DATA 2950
SCALARS APICAL_flag int
LOOKUP_TABLE default
0
0
0
0
0
0
0
0
0
0
0
0
0
0
0
0
0
0
0
0
0
0
0
0
0
0
0
0
0
0
0
0
0
0
0
0
0
0
0
0
0
0
0
0
0
0
0
0
0
0
0
0
0
0
0
0
0
0
0
0
0
0
0
0
0
0
0
0
0
0
0
0
0
0
0
0
0
0
0
0
0
0
0
0
0
0
0
0
0
0
0
0
0
0
0
0
0
0
0
0
0
0
0
0
0
0
0
0
0
0
0
0
0
0
0
0
0
0
0
0
0
0
0
0
0
0
0
0
0
0
0
0
0
0
0
0
0
0
0
0
0
0
0
0
0
0
0
0
0
0
0
0
0
0
0
0
0
0
0
0
0
0
0
0
0
0
0
0
0
0
0
0
0
0
0
0
0
0
0
0
0
0
0
0
0
0
0
0
0
0
0
0
0
0
0
0
0
0
0
0
0
0
0
0
0
0
0
0
0
0
0
0
0
0
0
0
0
0
0
0
0
0
0
0
0
0
0
0
0
0
0
0
0
0
0
0
0
0
0
0
0
0
0
0
0
0
0
0
0
0
0
0
0
0
0
0
0
0
0
0
0
0
0
0
0
0
0
0
0
0
0
0
0
0
0
0
0
0
0
0
0
0
0
0
0
0
0
0
0
0
0
0
0
0
0
0
0
0
0
0
0
0
0
0
0
0
0
0
0
0
0
0
0
0
0
0
0
0
0
0
0
0
0
0
0
0
0
0
0
0
0
0
0
0
0
0
0
0
0
0
0
0
0
0
0
0
0
0
0
0
0
0
0
0
0
0
0
0
0
0
0
0
0
0
0
0
0
0
0
0
0
0
0
0
0
0
0
0
0
0
0
0
0
0
0
0
0
0
0
0
0
0
0
0
0
0
0
0
0
0
0
0
0
0
0
0
0
0
0
0
0
0
0
0
0
0
0
0
0
0
0
0
0
0
0
0
0
0
0
0
0
0
0
0
0
0
0
0
0
0
0
0
0
0
0
0
0
0
0
0
0
0
0
0
0
0
0
0
0
0
0
0
0
0
0
0
0
0
0
0
0
0
0
0
0
0
0
0
0
0
0
0
0
0
0
0
0
0
0
0
0
0
0
0
0
0
0
0
0
0
0
0
0
0
0
0
0
0
0
0
0
0
0
0
0
0
0
0
0
0
0
0
0
0
0
0
0
0
0
0
0
0
0
0
0
0
0
0
0
0
0
0
0
0
0
0
0
0
0
0
0
0
0
0
0
0
0
0
0
0
0
0
0
0
0
0
0
0
0
0
0
0
0
0
0
0
0
0
0
0
0
0
0
0
0
0
0
0
0
0
0
0
0
0
0
0
0
0
0
0
0
0
0
0
0
0
0
0
0
0
0
0
0
0
0
0
0
0
0
0
0
0
0
0
0
0
0
0
0
0
0
0
0
0
0
0
0
0
0
0
0
0
0
0
0
0
0
0
0
0
0
0
0
0
0
0
0
0
0
0
0
0
0
0
0
0
0
0
0
0
0
0
0
0
0
0
0
0
0
0
0
0
0
0
0
0
0
0
0
0
0
0
0
0
0
0
0
0
0
0
0
0
0
0
0
0
0
0
0
0
0
0
0
0
0
0
0
0
0
0
0
0
0
0
0
0
0
0
0
0
0
0
0
0
0
0
0
0
0
0
0
0
0
0
0
0
0
0
0
0
0
0
0
0
0
0
0
0
0
0
0
0
0
0
0
0
0
0
0
0
0
0
0
0
0
0
0
0
0
0
0
0
0
0
0
0
0
0
0
0
0
0
0
0
0
0
0
0
0
0
0
0
0
0
0
0
0
0
0
0
0
0
0
0
0
0
0
0
0
0
0
0
0
0
0
0
0
0
0
0
0
0
0
0
0
0
0
0
0
0
0
0
0
0
0
0
0
0
0
0
0
0
0
0
0
0
0
0
0
0
0
0
0
0
0
0
0
0
0
0
0
0
0
0
0
0
0
0
0
0
0
0
0
0
0
0
0
0
0
0
0
0
0
0
0
0
0
0
0
0
0
0
0
0
0
0
0
0
0
0
0
0
0
0
0
0
0
0
0
0
0
0
0
0
0
0
0
0
0
0
0
0
0
0
0
0
0
0
0
0
0
0
0
0
0
0
0
0
0
0
0
0
0
0
0
0
0
0
0
0
0
0
0
0
0
0
0
0
0
0
0
0
0
0
0
0
0
0
0
0
0
0
0
0
0
0
0
0
0
0
0
0
0
0
0
0
0
0
0
0
0
0
0
0
0
0
0
0
0
0
0
0
0
0
0
0
0
0
0
0
0
0
0
0
0
0
0
0
0
0
0
0
0
0
0
0
0
0
0
0
0
0
0
0
0
0
0
0
0
0
0
0
0
0
0
0
0
0
0
0
0
0
0
0
0
0
0
0
0
0
0
0
0
0
0
0
0
0
0
0
0
0
0
0
0
0
0
0
0
0
0
0
0
0
0
0
0
0
0
0
0
0
0
0
0
0
0
0
0
0
0
0
0
0
0
0
0
0
0
0
0
0
0
0
0
0
0
0
0
0
0
0
0
0
0
0
0
0
0
0
0
0
0
0
0
0
0
0
0
0
0
0
0
0
0
0
0
0
0
0
0
0
0
0
0
0
0
0
0
0
0
0
0
0
0
0
0
0
0
0
0
0
0
0
0
0
0
0
0
0
0
0
0
0
0
0
0
0
0
0
0
0
0
0
0
0
0
0
0
0
0
0
0
0
0
0
0
0
0
0
0
0
0
0
0
0
0
0
0
0
0
0
0
0
0
0
0
0
0
0
0
0
0
0
0
0
0
0
0
0
0
0
0
0
0
0
0
0
0
0
0
0
0
0
0
0
0
0
0
0
0
0
0
0
0
0
0
0
0
0
0
0
0
0
0
0
0
0
0
0
0
0
0
0
0
0
0
0
0
0
0
0
0
0
0
0
0
0
0
0
0
0
0
0
0
0
0
0
0
0
0
0
0
0
0
0
0
0
0
0
0
0
0
0
0
0
0
0
0
0
0
0
0
0
0
0
0
0
0
0
0
0
0
0
0
0
0
0
0
0
0
0
0
0
0
0
0
0
0
0
0
0
0
0
0
0
0
0
0
0
0
0
0
0
0
0
0
0
0
0
0
0
0
0
0
0
0
0
0
0
0
0
0
0
0
0
0
0
0
0
0
0
0
0
0
0
0
0
0
0
0
0
0
0
0
0
0
0
0
0
0
0
0
0
0
0
0
0
0
0
0
0
0
0
0
0
0
0
0
0
0
0
0
0
0
0
0
0
0
0
0
0
0
0
0
0
0
0
0
0
0
0
0
0
0
0
0
0
0
0
0
0
0
0
0
0
0
0
0
0
0
0
0
0
0
0
0
0
0
0
0
0
0
0
0
0
0
0
0
0
0
0
0
0
0
0
0
0
0
0
0
0
0
0
0
0
0
0
0
0
0
0
0
0
0
0
0
0
0
0
0
0
0
0
0
0
0
0
0
0
0
0
0
0
0
0
0
0
0
0
0
0
0
0
0
0
0
0
0
0
0
0
0
0
0
0
0
0
0
0
0
0
0
0
0
0
0
0
0
0
0
0
0
0
0
0
0
0
0
0
0
0
0
0
0
0
0
0
0
0
0
0
0
0
0
0
0
0
0
0
0
0
0
0
0
0
0
0
0
0
0
0
0
0
0
0
0
0
0
0
0
0
0
0
0
0
0
0
0
0
0
0
0
0
0
0
0
0
0
0
0
0
0
0
0
0
0
0
0
0
0
0
0
0
0
0
0
0
0
0
0
0
0
0
0
0
0
0
0
0
0
0
0
0
0
0
0
0
0
0
0
0
0
0
0
0
0
0
0
0
0
0
0
0
0
0
0
0
0
0
0
0
0
0
0
0
0
0
0
0
0
0
0
0
0
0
0
0
0
0
0
0
0
0
0
0
0
0
0
0
0
0
0
0
0
0
0
0
0
0
0
0
0
0
0
0
0
0
0
0
0
0
0
0
0
0
0
0
0
0
0
0
0
0
0
0
0
0
0
0
0
0
0
0
0
0
0
0
0
0
0
0
0
0
0
0
0
0
0
0
0
0
0
0
0
0
0
0
0
0
0
0
0
0
0
0
0
0
0
0
0
0
0
0
0
0
0
0
0
0
0
0
0
0
0
0
0
0
0
0
0
0
0
0
0
0
0
0
0
0
0
0
0
0
0
0
0
0
0
0
0
0
0
0
0
0
0
0
0
0
0
0
0
0
0
0
0
0
0
0
0
0
0
0
0
0
0
0
0
0
0
0
0
0
0
0
0
0
0
0
0
0
0
0
0
0
0
0
0
0
0
0
0
0
0
0
0
0
0
0
0
0
0
0
0
0
0
0
0
0
0
0
0
0
0
0
0
0
0
0
0
0
0
0
0
0
0
0
0
0
0
0
0
0
0
0
0
0
0
0
0
0
0
0
0
0
0
0
0
0
0
0
0
0
0
0
0
0
0
0
0
0
0
0
0
0
0
0
0
0
0
0
0
0
0
0
0
0
0
0
0
0
0
0
0
0
0
0
0
0
0
0
0
0
0
0
0
0
0
0
0
0
0
0
0
0
0
0
0
0
0
0
0
0
0
0
0
0
0
0
0
0
0
0
0
0
0
0
0
0
0
0
0
0
0
0
0
0
0
0
0
0
0
0
0
0
0
0
0
0
0
0
0
0
0
0
0
0
0
0
0
0
0
0
0
0
0
0
0
0
0
0
0
0
0
0
0
0
0
0
0
0
0
0
0
0
0
0
0
0
0
0
0
0
0
0
0
0
0
0
0
0
0
0
0
0
0
0
0
0
0
0
0
0
0
0
0
0
0
0
0
0
0
0
0
0
0
0
0
0
0
0
0
0
0
0
0
0
0
0
0
0
0
0
0
0
0
0
0
0
0
0
0
0
0
0
0
0
0
0
0
0
0
0
0
0
0
0
0
0
0
0
0
0
0
0
0
0
0
0
0
0
0
0
0
0
0
0
0
0
0
0
0
0
0
0
0
0
0
0
0
0
0
0
0
0
0
0
0
0
0
0
0
0
0
0
0
0
0
0
0
0
0
0
0
0
0
0
0
0
0
0
0
0
0
0
0
0
0
0
0
0
0
0
0
0
0
0
0
0
0
0
0
0
0
0
0
0
0
0
0
0
0
0
0
0
0
0
0
0
0
0
0
0
0
0
0
0
0
0
0
0
0
0
0
0
0
0
0
0
0
0
0
0
0
0
0
0
0
0
0
0
0
0
0
0
0
0
0
0
0
0
0
0
0
0
0
0
0
0
0
0
0
0
0
0
0
0
0
0
0
0
0
0
0
0
0
0
0
0
0
0
0
0
0
0
0
0
0
0
0
0
0
0
0
0
0
0
0
0
0
0
0
0
0
0
0
0
0
0
0
0
0
0
0
0
0
0
0
0
0
0
0
0
0
0
0
0
0
0
0
0
0
0
0
0
0
0
0
0
0
0
0
0
0
0
0
0
0
0
0
0
0
0
0
0
0
0
0
0
0
0
0
0
0
0
0
0
0
0
0
0
0
0
0
0
0
0
0
0
0
0
0
0
0
0
0
0
0
0
0
0
0
0
0
0
0
0
0
0
0
0
0
0
0
0
0
0
0
0
0
0
0
0
0
0
0
0
0
0
0
0
0
0
0
0
0
0
0
0
0
0
0
0
0
0
0
0
0
0
0
0
0
0
0
0
0
0
0
0
0
0
0
0
0
0
0
0
0
0
0
0
0
0
0
0
0
0
0
0
0
0
0
0
0
0
0
0
0
0
0
0
0
0
0
0
0
0
0
0
0
0
0
0
0
0
0
0
0
0
0
0
0
0
0
0
0
0
0
0
0
0
0
0
0
0
0
0
0
0
0
0
0
0
0
0
0
0
0
0
0
0
0
0
0
0
0
0
0
0
0
0
0
0
0
0
0
0
0
0
0
0
0
0
0
0
0
0
0
0
0
0
0
0
0
0
0
0
0
0
0
0
0
0
0
0
0
0
0
0
0
0
0
0
0
0
0
0
0
0
0
0
0
0
0
0
0
0
0
0
0
0
0
0
0
0
0
0
0
0
0
0
0
0
0
0
0
0
0
0
0
0
0
0
0
0
0
0
0
0
0
0
0
0
0
0
0
0
0
0
0
0
0
0
0
0
0
0
0
0
0
0
0
0
0
0
0
0
0
0
0
0
0
0
0
0
0
0
0
0
0
0
0
0
0
0
0
0
0
0
0
0
0
0
0
0
0
0
0
0
0
0
0
0
0
0
0
0
0
0
0
0
0
0
0
0
0
0
0
0
0
0
0
0
0
0
0
0
0
0
0
0
0
0
0
0
0
0
0
0
0
0
0
0
0
0
0
0
0
0
0
0
0
0
0
0
0
0
0
0
0
0
0
0
0
0
0
0
0
0
0
0
0
0
0
0
0
0
0
0
0
0
0
0
0
0
0
0
0
0
0
0
0
0
0
0
0
0
0
0
0
0
0
0
0
0
0
0
0
0
0
0
0
0
0
0
0
0
0
0
0
0
0
0
0
0
0
0
0
0
0
0
0
0
0
0
0
0
0
0
0
0
0
0
0
0
0
0
0
0
0
0
0
0
0
0
0
0
0
0
0
0
0
0
0
0
0
0
0
0
SCALARS Color_Flag int
LOOKUP_TABLE default
1
2
4
5
8
10
11
12
13
14
18
19
20
21
22
23
24
25
35
37
38
40
41
42
44
45
46
47
49
50
55
56
60
62
69
71
72
73
74
75
76
77
78
79
80
81
84
85
86
87
90
91
93
94
95
96
97
99
103
104
105
106
107
108
109
110
111
112
113
114
115
116
117
118
119
120
121
123
124
125
126
127
128
129
131
132
133
134
135
136
137
138
139
140
141
142
143
144
145
146
147
148
149
150
151
152
153
154
155
156
157
158
159
160
161
164
165
166
167
168
169
170
171
172
173
174
175
176
177
178
179
180
181
182
183
184
185
186
187
188
189
190
191
192
193
194
195
196
197
198
199
200
201
204
205
206
207
208
209
210
211
212
213
214
215
216
217
218
219
220
221
222
223
224
225
226
227
228
229
230
231
232
233
234
235
236
237
238
239
240
243
244
245
246
247
248
249
250
251
252
253
254
255
256
257
258
259
260
261
262
263
264
265
266
267
268
269
270
271
272
273
274
275
276
277
278
279
280
284
285
286
287
288
289
290
291
292
293
294
295
296
297
298
299
300
301
302
303
304
305
306
307
308
309
310
311
312
313
314
315
316
317
318
319
320
322
323
324
325
326
327
328
329
330
331
332
333
334
335
336
337
338
339
340
341
342
343
344
345
346
347
348
349
350
351
352
353
354
355
356
357
358
359
362
363
364
365
366
367
368
369
370
371
372
373
374
375
376
377
378
379
380
381
382
383
384
385
386
387
388
389
390
391
392
393
394
395
396
397
398
399
402
403
404
405
406
407
408
409
410
411
412
413
414
415
416
417
418
419
420
421
422
423
424
425
426
427
428
429
430
431
432
433
434
435
436
437
438
439
440
442
443
444
445
446
447
448
449
450
451
452
453
454
455
456
457
458
459
460
461
462
463
464
465
466
467
468
469
470
471
472
473
474
475
476
477
478
479
480
482
483
484
485
486
487
488
489
490
491
492
493
494
495
496
497
498
499
500
501
502
503
504
505
506
507
508
509
510
511
512
513
514
515
516
517
518
519
522
523
524
525
526
527
528
529
530
531
532
533
534
535
536
537
538
539
540
541
542
543
544
545
546
547
548
549
550
551
552
553
554
555
556
557
558
559
562
563
564
565
566
567
568
569
570
571
572
573
574
575
576
577
578
579
580
581
582
583
584
585
586
587
588
589
590
591
592
593
594
595
596
597
598
599
601
602
603
604
605
606
607
608
609
610
611
612
613
614
615
616
617
618
619
620
621
622
623
624
625
626
627
628
629
630
631
632
633
634
635
636
637
638
639
641
642
643
644
645
646
647
648
649
650
651
652
653
654
655
656
657
658
659
660
661
662
663
664
665
666
667
668
669
670
671
672
673
674
675
676
677
678
679
681
682
683
684
685
686
687
688
689
690
691
692
693
694
695
696
697
698
699
700
701
702
703
704
705
706
707
708
709
710
711
712
713
714
715
716
717
718
719
721
722
723
724
725
726
727
728
729
730
731
732
733
734
735
736
737
738
739
740
741
742
743
744
745
746
747
748
749
750
751
752
753
754
755
756
757
758
760
761
762
763
764
765
766
767
768
769
770
771
772
773
774
775
776
777
778
779
780
781
782
783
784
785
786
787
788
789
790
791
792
793
794
795
796
797
800
801
802
803
804
805
806
807
808
809
810
811
812
813
814
815
816
817
818
819
820
821
822
823
824
825
826
827
828
829
830
831
832
833
834
835
836
837
841
842
843
844
845
846
847
848
849
850
851
852
853
854
855
856
857
858
859
860
861
862
863
864
865
866
867
868
869
870
871
872
873
874
875
876
877
878
880
881
882
883
884
885
886
887
888
889
890
891
892
893
894
895
896
897
898
899
900
901
902
903
904
905
906
907
908
909
910
911
912
913
914
915
916
917
920
921
922
923
924
925
926
927
928
929
930
931
932
933
934
935
936
937
938
939
940
941
942
943
944
945
946
947
948
949
950
951
952
953
954
955
956
958
960
961
962
963
964
965
966
967
968
969
970
971
972
973
974
975
976
977
978
979
980
981
982
983
984
985
986
987
988
989
990
991
992
993
994
995
996
1000
1001
1002
1003
1004
1005
1006
1007
1008
1009
1010
1011
1012
1013
1014
1015
1016
1017
1018
1019
1020
1021
1022
1023
1024
1025
1026
1027
1028
1029
1030
1031
1032
1033
1034
1035
1036
1037
1040
1041
1042
1043
1044
1045
1046
1047
1048
1049
1050
1051
1052
1053
1054
1055
1056
1057
1058
1059
1060
1061
1062
1063
1064
1065
1066
1067
1068
1069
1070
1071
1072
1073
1074
1075
1076
1077
1080
1081
1082
1083
1084
1085
1086
1087
1088
1089
1090
1091
1092
1093
1094
1095
1096
1097
1098
1099
1100
1101
1102
1103
1104
1105
1106
1107
1108
1109
1110
1111
1112
1113
1114
1115
1116
1117
1118
1120
1121
1122
1123
1124
1125
1126
1127
1128
1129
1130
1131
1132
1133
1134
1135
1136
1137
1138
1139
1140
1141
1142
1143
1144
1145
1146
1147
1148
1149
1150
1151
1152
1153
1154
1155
1156
1157
1158
1160
1161
1162
1163
1164
1165
1166
1167
1168
1169
1170
1171
1172
1173
1174
1175
1176
1177
1178
1179
1180
1181
1182
1183
1184
1185
1186
1187
1188
1189
1190
1191
1192
1193
1194
1195
1196
1197
1200
1201
1202
1203
1204
1205
1206
1207
1208
1209
1210
1211
1212
1213
1214
1215
1216
1217
1218
1219
1220
1221
1222
1223
1224
1225
1226
1227
1228
1229
1230
1231
1232
1233
1234
1235
1236
1237
1238
1241
1242
1243
1244
1245
1246
1247
1248
1249
1250
1251
1252
1253
1254
1255
1256
1257
1258
1259
1260
1261
1262
1263
1264
1265
1266
1267
1268
1269
1270
1271
1272
1273
1274
1275
1276
1277
1278
1282
1283
1284
1285
1286
1287
1288
1289
1290
1291
1292
1293
1294
1295
1296
1297
1298
1299
1300
1301
1302
1303
1304
1305
1306
1307
1308
1309
1310
1311
1312
1313
1314
1315
1316
1317
1318
1319
1322
1323
1324
1325
1326
1327
1328
1329
1330
1331
1332
1333
1334
1335
1336
1337
1338
1339
1340
1341
1342
1343
1344
1345
1346
1347
1348
1349
1350
1351
1352
1353
1354
1355
1356
1357
1358
1362
1363
1364
1365
1366
1367
1368
1369
1370
1371
1372
1373
1374
1375
1376
1377
1378
1379
1380
1381
1382
1383
1384
1385
1386
1387
1388
1389
1390
1391
1392
1393
1394
1395
1396
1397
1398
1399
1400
1402
1403
1404
1405
1406
1407
1408
1409
1410
1411
1412
1413
1414
1415
1416
1417
1418
1419
1420
1421
1422
1423
1424
1425
1426
1427
1428
1429
1430
1431
1432
1433
1434
1435
1436
1437
1438
1439
1440
1443
1444
1445
1446
1447
1448
1449
1450
1451
1452
1453
1454
1455
1456
1457
1458
1459
1460
1461
1462
1463
1464
1465
1466
1467
1468
1469
1470
1471
1472
1473
1474
1475
1476
1477
1478
1479
1480
1483
1484
1485
1486
1487
1488
1489
1490
1491
1492
1493
1494
1495
1496
1497
1498
1499
1500
1501
1502
1503
1504
1505
1506
1507
1508
1509
1510
1511
1512
1513
1514
1515
1516
1517
1518
1519
1520
1524
1526
1527
1528
1529
1530
1531
1532
1533
1534
1535
1536
1537
1538
1539
1540
1541
1542
1543
1544
1545
1546
1547
1548
1549
1550
1551
1552
1553
1554
1555
1556
1557
1558
1559
1561
1566
1567
1568
1569
1570
1571
1572
1573
1574
1575
1576
1577
1578
1579
1580
1581
1582
1583
1584
1585
1586
1587
1588
1589
1590
1592
1594
1596
1598
1416
1016
1083
888
1263
55
937
1261
385
183
695
552
1252
917
1156
1490
1224
286
653
619
265
142
1322
159
418
295
1246
76
489
1556
111
758
878
1116
1487
944
746
1301
201
494
784
780
951
283
1497
1091
850
542
69
1503
1466
195
599
971
496
1106
137
440
533
659
505
118
965
188
927
1410
886
1424
1509
486
693
1296
231
625
1097
379
307
1219
1456
389
1250
1433
514
167
176
1140
1419
639
621
445
692
906
1286
390
753
638
792
1537
896
936
1154
1175
796
1024
1531
1002
1265
1439
1056
609
1338
1375
801
433
305
1491
603
342
1087
1404
1270
1036
87
1298
1525
1000
550
81
727
1378
457
86
544
674
1051
711
584
363
1070
1256
1436
212
575
531
1066
150
1182
216
1269
969
41
1393
507
1211
765
647
1217
999
713
449
1282
654
845
106
1073
1110
767
501
1133
515
339
642
952
108
454
690
1462
607
688
509
899
498
1157
558
1364
467
1216
223
855
712
1105
1085
311
346
215
200
80
229
559
274
887
585
131
789
366
1103
1228
1026
175
1415
851
724
633
19
1323
1011
1293
1374
84
155
186
940
1365
383
284
1422
1518
667
204
832
1575
963
434
327
737
1184
992
1185
697
1455
334
399
1552
856
280
1
1167
93
149
246
1021
408
750
13
543
678
264
1512
1064
423
317
977
1187
329
556
841
1126
1297
1535
437
616
1507
10
1391
314
873
239
1101
424
554
1584
1350
749
1192
1372
428
21
365
1367
1181
875
694
1506
1255
464
1012
948
1403
1317
1534
978
974
1463
299
227
1155
1330
1569
270
1141
1090
1467
961
1017
1578
351
179
1214
785
1368
643
285
1183
341
154
1533
1197
679
1366
304
764
1104
1207
772
1526
793
1527
1546
1230
1413
415
698
1149
113
374
1166
629
645
166
1395
897
1555
1129
869
1425
1076
1316
1495
934
1352
838
957
287
1528
316
1577
187
47
168
1253
255
130
1468
910
240
252
741
1303
773
1020
205
1580
1373
393
928
905
1173
443
469
438
1178
1257
256
925
373
943
235
1447
914
392
932
830
783
1370
818
1179
1356
908
538
754
250
774
24
699
1493
1188
371
127
1114
1519
276
592
343
209
827
681
715
1362
982
1428
233
1148
479
871
499
278
478
949
803
244
1096
1174
101
266
848
1233
953
984
1499
182
1014
1385
900
448
483
1130
993
1294
1532
862
802
534
79
1300
1308
745
769
1061
547
1206
884
853
430
689
335
1550
567
196
463
109
224
185
819
313
260
516
207
1053
115
1489
241
1190
797
1191
1195
622
481
675
1084
1025
1548
885
842
1121
810
762
725
545
1388
1568
686
956
600
831
1590
672
332
120
907
1264
1347
1432
614
808
44
1326
615
1398
1067
411
355
597
1307
548
1208
1194
1345
1241
236
217
1465
1152
1032
930
1541
760
1266
1311
730
1394
1113
1068
425
517
107
868
1271
1485
522
432
1557
388
700
606
459
861
986
1510
1431
503
582
673
1234
67
563
382
859
1203
1275
650
124
1172
924
1351
40
816
794
1242
402
742
747
177
1588
1469
208
271
1202
826
1176
1354
807
577
596
178
641
804
1162
1177
612
610
1511
983
844
119
872
865
740
1471
933
637
25
579
269
370
414
576
493
728
743
915
1196
1450
903
1480
846
1134
1004
1107
763
1312
1429
1369
100
193
297
921
1283
624
1077
574
682
920
526
380
352
1237
262
470
833
189
1449
96
1327
1278
135
732
1318
1063
1310
472
518
1574
843
1003
562
412
203
551
1387
565
1386
1010
356
557
537
771
26
702
805
144
400
1040
778
309
121
398
1383
684
513
1414
1062
1095
1336
325
1363
1222
593
1389
409
881
22
219
473
587
837
1344
1570
979
1540
1220
735
707
1333
410
939
1435
510
268
1453
511
857
1305
71
330
85
658
152
1445
1405
465
945
1339
378
528
180
1262
1337
1081
279
435
911
892
1142
1170
1046
275
962
966
417
344
1019
170
453
347
323
199
1545
277
1508
1109
662
226
775
1486
1058
78
1377
11
1477
657
997
206
9
864
1251
350
125
588
20
369
656
232
1346
1384
126
1289
1538
345
210
148
1355
975
174
901
245
1483
555
1205
524
324
1108
663
1434
1371
811
1544
840
1553
225
211
729
806
273
541
1041
895
1054
194
73
1034
1037
39
110
444
1137
620
145
482
391
439
1516
1226
972
396
326
75
1277
954
546
779
987
590
586
328
635
608
315
790
611
1382
1400
1381
291
436
716
368
756
530
222
1325
847
161
1343
752
751
989
348
988
1052
1131
1080
114
156
300
290
788
296
1529
1426
766
605
1138
617
293
668
683
302
1075
95
442
1407
105
738
1579
1290
1086
12
1474
946
947
397
1502
1581
539
1236
512
1494
37
913
1209
456
5
129
553
651
1536
447
669
431
1223
564
318
1353
484
416
882
1112
671
420
461
1440
160
1287
809
1572
1470
709
1128
426
817
973
1292
1001
1571
163
761
1150
1168
1125
889
583
527
985
77
301
870
46
455
849
1238
1099
696
1163
613
134
147
468
1288
1029
722
474
824
941
1500
1047
298
1201
829
1551
1442
931
169
171
1291
1244
14
1399
581
970
1153
714
1117
1048
508
504
748
1143
1042
357
306
891
636
218
462
676
1329
1189
815
138
594
1542
950
1094
572
677
1451
1582
1268
230
117
427
1396
221
898
422
604
1444
1566
376
701
1484
394
916
310
1411
1245
1464
303
717
781
1043
523
1204
877
292
466
536
1035
128
1515
568
259
1459
1392
791
968
1180
1231
500
1127
703
1524
1313
1573
495
519
627
655
289
184
1281
1044
623
1412
876
1100
1258
1457
902
823
1438
1273
632
1225
143
491
446
1135
731
866
1030
1492
1306
1088
935
1033
1328
312
116
1488
1186
786
1169
1267
573
1437
1122
419
1007
926
1247
1082
942
1304
883
451
1299
1146
860
1586
578
929
407
1136
1583
664
1554
813
739
377
1027
1335
1018
770
165
994
1248
228
1060
214
1022
452
540
798
1009
708
191
36
1446
1334
139
1314
1147
192
272
1443
254
1539
492
237
190
644
1420
258
1111
955
333
777
1324
1285
247
1559
874
471
1123
867
1243
1055
734
602
1479
1045
1514
1460
1340
904
281
1260
776
726
880
646
591
1501
238
1072
589
267
1144
172
634
1005
336
1274
1478
243
349
893
173
45
744
1379
506
821
153
1145
248
97
938
909
1132
1102
1331
721
359
353
1151
1089
384
1472
828
852
1397
1276
1475
234
529
1315
1476
1171
1430
1498
1408
476
490
520
1549
358
99
580
1259
820
706
1406
354
1198
1418
140
18
157
1232
631
213
981
33
964
1558
1023
340
460
733
477
360
1028
858
1302
1074
1284
1496
249
1008
666
1517
1409
1057
450
566
294
395
1523
1161
995
960
1098
1358
112
570
1006
1504
458
626
1543
571
863
1360
923
132
1213
1458
485
1093
660
146
535
403
1272
1357
736
381
141
652
319
723
1227
387
757
367
253
133
362
404
1059
649
825
912
1530
406
331
197
685
894
812
386
1342
88
364
1165
628
1332
814
1417
836
782
976
1448
1124
1423
1031
487
1547
967
429
718
337
1139
1049
1427
768
822
1454
261
1390
1092
991
1215
1065
665
1249
835
7
198
1115
1218
405
72
710
922
181
1015
421
257
890
1421
1452
569
1309
996
661
1380
1576
50
1473
618
151
1229
787
1235
1254
854
1164
136
158
1505
755
413
1013
990
1210
251
1069
687
549
1585
1071
1341
372
502
834
497
705
475
525
670
630
74
488
1295
164
1349
308
1050
1376
375
338
980
1212
263
648
1461
704
532
800
598
288
595
795
691
1513
1348
1221
1193
220
