# vtk DataFile Version 3.0
Motion
ASCII
DATASET UNSTRUCTURED_GRID
POINTS 6400 float
-18.3687 -16.9291 3.20933
-18.2686 -15.7834 3.19008
-18.0096 -15.2207 3.19031
-17.7288 -14.0304 3.17252
-17.7633 -13.4305 3.16209
-17.86 -12.3571 3.11358
-17.9257 -11.4575 3.03054
-17.5453 -10.6558 3.00858
-17.7633 -9.41858 2.9289
-16.8429 -8.26593 2.79267
-16.8728 -7.69366 2.79996
-17.4418 -6.90231 2.88526
-17.1729 -6.12416 2.88532
-16.6001 -4.95567 2.77016
-16.4402 -4.4279 2.6984
-16.2697 -3.29558 2.61539
-16.3181 -2.72717 2.64366
-17.0392 -1.61195 3.03489
-17.1949 -1.0838 3.06836
-16.6461 0.0387316 2.76159
-16.7128 0.575335 2.78233
-17.4932 1.57262 3.13618
-17.5421 2.11637 3.15148
-17.4534 3.11228 3.11374
-17.4335 4.13665 3.09766
-17.7619 5.34944 3.18732
-17.9682 5.90429 3.23246
-17.6729 6.72749 3.12666
-17.3838 7.53001 2.99393
-18.1336 8.58059 3.2749
-18.1338 9.11635 3.30162
-17.3711 10.1916 3.15763
-17.4135 10.7443 3.22862
-17.7767 11.8733 3.40298
-17.7853 12.441 3.41918
-18.1314 13.7119 3.42992
-18.1517 14.2947 3.40117
-18.2927 15.4775 3.33448
-18.2373 16.0569 3.30627
-18.3249 17.1561 3.23828
-17.8905 -16.6624 3.23396
-16.6691 -16.9753 2.74569
-16.3591 -16.7303 2.40259
-16.0276 -16.7407 1.03656
-16.0758 -16.0272 0.428995
-16.3366 -16.2162 -0.451315
-16.457 -16.0081 -0.952088
-16.6177 -16.5225 -2.09464
-16.4905 -16.3971 -2.5912
-15.7853 -16.8875 -3.57343
-14.8184 -16.5038 -3.8208
-14.2747 -16.7228 -3.77478
-13.2362 -16.582 -2.98496
-13.0253 -16.8751 -2.56601
-12.8702 -16.4964 -1.74969
-12.8591 -16.8554 -1.0192
-12.9502 -16.7137 0.136335
-12.9181 -17.0241 0.555335
-12.5779 -16.8884 1.74497
-12.2474 -17.1507 2.09758
-11.0682 -16.8086 2.67486
-10.2558 -17.1008 2.55426
-9.71157 -16.8383 2.34307
-8.76868 -17.1965 1.64169
-8.19062 -16.934 0.994212
-7.81717 -17.2066 0.641256
-6.99612 -16.9265 -0.240046
-6.55508 -17.2165 -0.441972
-5.90248 -17.0165 -0.813843
-4.84411 17.1272 -0.759842
-4.4585 -17.1702 -0.829431
-3.40923 -17.212 -0.430111
-3.03838 -16.959 -0.275226
-2.05537 17.2649 0.509525
-1.43388 -17.1526 0.897641
-0.651674 17.0328 1.2961
-0.214977 17.2145 1.44569
0.994455 16.9094 1.4121
1.39945 17.2687 1.39726
2.33688 17.0003 0.737114
2.80687 17.0628 0.215132
3.06576 16.8246 -0.291187
3.44208 -17.3057 -0.756893
3.83765 16.8915 -1.60995
4.48717 17.0368 -2.40061
4.91404 16.9107 -2.77346
5.4041 -17.0474 -2.98933
6.29866 17.1869 -3.06647
6.88523 -17.0377 -2.93581
7.66361 -17.2233 -2.09527
7.81177 -16.8519 -1.79452
7.82918 -17.0576 -0.517234
7.77537 -16.7343 -0.0922794
7.56791 -16.8707 0.818401
7.59662 -16.2008 1.28368
7.82418 -16.4439 2.53653
8.09114 -16.1658 2.83628
9.19725 -16.5177 3.4929
9.62365 -16.2722 3.48461
10.8642 -16.403 3.03171
11.1455 -16.0242 2.79582
11.8633 -16.4192 1.71637
12.0526 -16.1312 1.35978
12.4027 -16.4224 0.119118
12.5713 -16.0638 -0.189576
13.0576 -16.242 -1.33385
13.3785 -15.9329 -1.63749
14.0128 -16.256 -2.28378
14.7595 -15.9216 -2.56779
15.5374 -16.3341 -2.73979
16.6992 -15.9626 -2.47114
17.1133 -16.3178 -2.27398
18.0444 -16.1371 -1.4504
18.2999 -16.4655 -1.05916
18.8704 -16.3006 0.0144857
19.2762 -16.7619 1.02609
19.2543 -16.4207 0.896233
-19.881 -16.7361 2.33587
-17.8712 -16.1324 3.21784
-16.6486 -15.9017 2.76201
-16.3454 -16.1674 2.41225
-15.9426 -15.5432 1.37662
-15.9899 -15.533 0.604218
-16.0643 -15.1567 0.162048
-16.4391 -15.477 -1.06802
-16.4955 -15.2666 -1.54944
-16.3715 -15.8563 -2.76643
-16.0783 -15.6811 -3.18829
-14.7956 -15.9954 -3.79319
-14.1769 -15.6441 -3.672
-13.1994 -15.9809 -2.86606
-12.9326 -15.6796 -2.0864
-12.8749 -15.9772 -1.61729
-12.9573 -15.7897 -0.398141
-12.981 -16.116 0.0659921
-12.8902 -16.0185 1.2557
-12.665 -16.3574 1.69706
-12.2474 -15.9532 2.30262
-11.1477 -16.2586 2.71576
-10.7081 -15.9662 2.72768
-9.57167 -16.2944 2.26725
-9.19926 -16.0447 1.97532
-8.28833 -16.4067 1.00655
-8.02359 -16.1608 0.625728
-7.1029 -16.3672 -0.334377
-6.77049 -16.0929 -0.671389
-5.74038 -16.5007 -1.02826
-5.28485 -16.3919 -1.12954
-4.5607 -16.704 -1.00077
-3.47478 -16.1627 -0.764102
-3.0554 -16.4302 -0.429223
-2.15526 -16.2732 0.2563
-1.56556 -16.5814 0.792501
-1.19978 -16.3349 1.03875
-0.160987 -16.8812 1.52207
0.281077 -16.6554 1.63771
1.1874 -16.8618 1.55425
1.86533 -16.4214 1.42923
2.8139 -16.9554 0.468513
3.06872 -16.8817 0.106206
3.44536 -16.7406 -0.529877
3.80222 -16.8503 -1.29652
4.36169 -17.035 -2.21451
4.67162 -16.3159 -2.48542
5.38362 -16.4879 -2.97104
5.71646 -16.1506 -3.10103
6.96131 -16.4277 -2.94043
7.50837 -16.0906 -2.50161
7.78542 -16.3302 -1.99824
7.96431 -15.9056 -0.918357
7.81399 -16.2319 -0.0571266
7.77968 -15.5228 0.42993
7.67228 -15.6107 1.2585
7.80405 -15.3207 1.91805
8.15295 -15.6212 2.76327
8.52463 -15.347 3.04479
9.70381 -15.7116 3.43404
10.4669 -15.3186 3.213
11.0005 -15.5067 2.91883
11.6163 -15.2041 2.33571
12.0317 -15.6041 1.5624
12.3951 -15.2843 0.782034
12.6065 -15.5775 -0.00283493
13.2197 -15.1708 -1.13133
13.4543 -15.4656 -1.56068
14.4791 -15.0444 -2.2713
14.8757 -15.3654 -2.49778
16.1615 -15.1031 -2.55437
16.6216 -15.3861 -2.46833
17.6736 -15.2564 -1.86803
18.0065 -15.5784 -1.53241
18.529 -15.3556 -0.833444
18.8207 -15.7763 -0.218694
19.312 -15.5939 0.842254
19.4375 -15.959 1.19447
-19.8101 -15.7263 2.29485
-17.0767 -15.0699 3.03867
-16.6636 -15.3882 2.79442
-15.9705 -15.071 1.76195
-15.8965 -14.5625 1.57978
-15.8673 -13.9998 0.594367
-16.0343 -14.6978 0.115511
-16.3725 -14.4148 -1.22087
-16.4593 -14.7279 -1.64591
-16.1466 -14.7759 -2.97911
-15.9347 -15.13 -3.27921
-14.6552 -14.9354 -3.75619
-14.1587 -15.1112 -3.64263
-13.3465 -14.7137 -3.04271
-12.9231 -15.1903 -1.95924
-12.9005 -14.928 -1.07464
-12.951 -15.2088 -0.542595
-13.0462 -14.935 0.633157
-12.9064 -15.4911 1.34634
-12.5547 -15.1034 2.08295
-12.2317 -15.3401 2.40297
-11.1421 -15.1776 2.8096
-10.7055 -15.4384 2.76851
-9.51934 -15.2276 2.24412
-9.17479 -15.5198 1.94625
-8.33761 -15.3475 0.916402
-8.06517 -15.6516 0.581491
-7.51064 -15.6392 -0.118179
-6.69308 -15.5717 -0.866778
-6.18868 -15.3404 -1.19451
-5.06895 -15.9096 -1.28244
-4.30558 -15.4993 -1.28861
-3.48202 -15.6447 -0.908792
-3.07425 -15.385 -0.708541
-2.16576 -15.7235 0.159134
-1.5894 -15.486 0.658871
-1.21312 -15.7891 1.00229
-0.217545 -15.7466 1.58032
0.24089 -16.1143 1.68429
1.31841 -15.622 1.762
1.81123 -15.8866 1.55873
2.7529 -15.7101 0.919813
3.07655 -15.9804 0.41737
3.59978 -15.6134 -0.503723
3.9062 -16.0433 -1.32065
4.34292 -15.9298 -2.05311
4.34358 -15.4121 -2.01611
4.65078 -15.2385 -2.43525
5.41602 -15.5379 -2.97399
6.05287 -15.1072 -3.17472
7.37726 -15.4951 -2.71711
7.63881 -15.2038 -2.42519
8.00983 -15.3967 -1.1437
8.015 -15.0351 -0.798648
7.89231 -15.1384 -0.00218725
7.82465 -14.4564 0.920425
7.85601 -14.7861 1.79872
8.22972 -14.5468 2.53452
8.54944 -14.8072 2.93537
9.73531 -14.5171 3.30374
10.2543 -14.8068 3.26497
11.3749 -14.344 2.63892
11.7113 -14.684 2.26614
12.3778 -14.4937 1.14143
12.5112 -14.7689 0.692831
13.0832 -14.3524 -0.503769
13.4244 -14.6464 -1.20606
14.0901 -14.3024 -1.82261
14.4658 -14.5213 -2.14114
15.6623 -14.3104 -2.46455
16.1014 -14.5941 -2.50104
17.2779 -14.2919 -2.11385
17.6379 -14.6665 -1.8955
18.4646 -14.4707 -1.01263
18.6615 -14.802 -0.678899
19.2299 -14.7584 0.475954
19.3729 -15.081 0.862109
19.9869 -14.9135 1.9303
-19.7683 -15.1671 2.27089
-16.9422 -14.5601 2.97706
-16.2181 -14.1515 2.41933
-15.8279 -13.6596 1.59355
-15.7489 -13.4144 1.02841
-15.9479 -13.7303 0.099125
-16.1744 -13.5851 -0.702931
-16.3176 -13.8817 -1.19131
-16.3533 -13.6674 -2.07628
-15.9817 -14.2408 -3.12895
-15.5207 -14.0455 -3.49797
-14.7439 -14.3904 -3.73856
-13.5122 -13.9118 -3.26564
-13.2057 -14.168 -2.89271
-12.8898 -13.9702 -1.99609
-12.8719 -14.3885 -1.23944
-13.022 -14.1212 0.017918
-13.0581 -14.3735 0.493007
-12.9669 -14.177 1.347
-12.6657 -14.6577 1.97862
-12.0605 -14.175 2.59777
-11.2741 -14.592 2.8403
-9.95948 -14.4117 2.5564
-9.52806 -14.7048 2.26756
-8.59053 -14.5147 1.20916
-8.3157 -14.8278 0.823553
-8.03024 -14.5933 0.36758
-7.525 -14.7636 -0.290197
-7.09039 -14.2919 -0.83807
-6.08937 -14.8637 -1.35105
-5.71033 -14.5333 -1.55954
-4.54226 -15.0161 -1.47997
-4.17556 -14.6713 -1.46426
-3.03075 -14.8619 -0.809108
-2.6605 -14.6506 -0.541678
-1.62434 -14.9652 0.568057
-1.28613 -14.7024 0.871847
-0.232311 -15.1645 1.61225
0.436057 -14.8664 1.83683
1.03457 -15.1052 1.86275
2.02069 -14.7259 1.67913
2.68641 -15.1387 1.13867
2.94164 -14.8315 0.928637
3.53326 -15.0491 -0.182618
3.65298 -14.7493 -0.416996
3.94837 -14.8746 -1.20663
4.10245 -14.1723 -1.53537
4.55461 -14.6467 -2.30216
5.29191 -14.1807 -2.96614
6.12292 -14.5533 -3.20399
6.84953 -14.2571 -3.08668
7.64434 -14.6917 -2.46469
7.90586 -14.4432 -1.98982
8.04507 -14.5642 -1.05528
8.00167 -13.7582 -0.180092
7.88989 -13.9202 0.74245
7.91323 -13.6563 1.18908
8.27342 -13.9988 2.45018
8.87567 -13.6033 2.90612
9.75362 -13.9431 3.24798
10.5316 -13.559 3.09963
11.3917 -13.8485 2.64942
11.7694 -13.6313 2.30838
12.433 -14.0049 1.19063
12.6445 -13.7454 0.812439
13.1379 -13.8373 -0.359481
13.3905 -13.5053 -0.680837
14.1339 -13.7669 -1.69952
14.5487 -13.445 -1.91409
15.7326 -13.7592 -2.38321
16.5004 -13.3904 -2.28149
17.3439 -13.7353 -2.03921
17.7892 -13.5596 -1.73631
18.3821 -13.9394 -1.13878
18.8331 -13.704 -0.490491
19.3012 -14.2644 0.532697
19.5255 -14.0573 0.967676
19.9267 -14.3698 1.7368
-19.5503 -14.0377 2.34553
-16.4554 -13.6819 2.69382
-16.3331 -13.2374 2.60555
-15.7572 -12.7862 1.62393
-15.7167 -12.787 0.881799
-15.7645 -12.4848 0.43354
-16.1258 -13.0117 -0.706734
-16.2139 -12.7769 -1.13054
-16.2899 -13.1096 -2.29358
-16.1533 -12.9752 -2.69379
-15.3398 -13.4856 -3.58236
-14.8564 -13.2265 -3.72617
-13.4979 -13.4024 -3.29708
-13.161 -13.1072 -2.94036
-12.8158 -13.4451 -1.71266
-12.8115 -13.2181 -1.24326
-13.0095 -13.5951 -0.00268984
-13.0493 -13.324 0.45358
-12.8976 -13.7036 1.64627
-12.5023 -13.3507 2.29002
-12.0546 -13.617 2.63523
-11.2554 -13.3378 2.91606
-9.97544 -13.9465 2.58795
-9.58655 -13.6306 2.36558
-8.75805 -13.7277 1.46253
-8.55301 -13.4176 1.14201
-7.98178 -14.0657 0.23309
-7.76469 -13.6493 -0.141607
-6.8225 -13.8926 -1.11915
-6.90921 -13.5048 -1.10945
[...]
CELL_DATA 2952
SCALARS APICAL_flag int
LOOKUP_TABLE default
0
0
0
0
0
0
0
0
0
0
0
0
0
0
0
0
0
0
0
0
0
0
0
0
0
0
0
0
0
0
0
0
0
0
0
0
0
0
0
0
0
0
0
0
0
0
0
0
0
0
0
0
0
0
0
0
0
0
0
0
0
0
0
0
0
0
0
0
0
0
0
0
0
0
0
0
0
0
0
0
0
0
0
0
0
0
0
0
0
0
0
0
0
0
0
0
0
0
0
0
0
0
0
0
0
0
0
0
0
0
0
0
0
0
0
0
0
0
0
0
0
0
0
0
0
0
0
0
0
0
0
0
0
0
0
0
0
0
0
0
0
0
0
0
0
0
0
0
0
0
0
0
0
0
0
0
0
0
0
0
0
0
0
0
0
0
0
0
0
0
0
0
0
0
0
0
0
0
0
0
0
0
0
0
0
0
0
0
0
0
0
0
0
0
0
0
0
0
0
0
0
0
0
0
0
0
0
0
0
0
0
0
0
0
0
0
0
0
0
0
0
0
0
0
0
0
0
0
0
0
0
0
0
0
0
0
0
0
0
0
0
0
0
0
0
0
0
0
0
0
0
0
0
0
0
0
0
0
0
0
0
0
0
0
0
0
0
0
0
0
0
0
0
0
0
0
0
0
0
0
0
0
0
0
0
0
0
0
0
0
0
0
0
0
0
0
0
0
0
0
0
0
0
0
0
0
0
0
0
0
0
0
0
0
0
0
0
0
0
0
0
0
0
0
0
0
0
0
0
0
0
0
0
0
0
0
0
0
0
0
0
0
0
0
0
0
0
0
0
0
0
0
0
0
0
0
0
0
0
0
0
0
0
0
0
0
0
0
0
0
0
0
0
0
0
0
0
0
0
0
0
0
0
0
0
0
0
0
0
0
0
0
0
0
0
0
0
0
0
0
0
0
0
0
0
0
0
0
0
0
0
0
0
0
0
0
0
0
0
0
0
0
0
0
0
0
0
0
0
0
0
0
0
0
0
0
0
0
0
0
0
0
0
0
0
0
0
0
0
0
0
0
0
0
0
0
0
0
0
0
0
0
0
0
0
0
0
0
0
0
0
0
0
0
0
0
0
0
0
0
0
0
0
0
0
0
0
0
0
0
0
0
0
0
0
0
0
0
0
0
0
0
0
0
0
0
0
0
0
0
0
0
0
0
0
0
0
0
0
0
0
0
0
0
0
0
0
0
0
0
0
0
0
0
0
0
0
0
0
0
0
0
0
0
0
0
0
0
0
0
0
0
0
0
0
0
0
0
0
0
0
0
0
0
0
0
0
0
0
0
0
0
0
0
0
0
0
0
0
0
0
0
0
0
0
0
0
0
0
0
0
0
0
0
0
0
0
0
0
0
0
0
0
0
0
0
0
0
0
0
0
0
0
0
0
0
0
0
0
0
0
0
0
0
0
0
0
0
0
0
0
0
0
0
0
0
0
0
0
0
0
0
0
0
0
0
0
0
0
0
0
0
0
0
0
0
0
0
0
0
0
0
0
0
0
0
0
0
0
0
0
0
0
0
0
0
0
0
0
0
0
0
0
0
0
0
0
0
0
0
0
0
0
0
0
0
0
0
0
0
0
0
0
0
0
0
0
0
0
0
0
0
0
0
0
0
0
0
0
0
0
0
0
0
0
0
0
0
0
0
0
0
0
0
0
0
0
0
0
0
0
0
0
0
0
0
0
0
0
0
0
0
0
0
0
0
0
0
0
0
0
0
0
0
0
0
0
0
0
0
0
0
0
0
0
0
0
0
0
0
0
0
0
0
0
0
0
0
0
0
0
0
0
0
0
0
0
0
0
0
0
0
0
0
0
0
0
0
0
0
0
0
0
0
0
0
0
0
0
0
0
0
0
0
0
0
0
0
0
0
0
0
0
0
0
0
0
0
0
0
0
0
0
0
0
0
0
0
0
0
0
0
0
0
0
0
0
0
0
0
0
0
0
0
0
0
0
0
0
0
0
0
0
0
0
0
0
0
0
0
0
0
0
0
0
0
0
0
0
0
0
0
0
0
0
0
0
0
0
0
0
0
0
0
0
0
0
0
0
0
0
0
0
0
0
0
0
0
0
0
0
0
0
0
0
0
0
0
0
0
0
0
0
0
0
0
0
0
0
0
0
0
0
0
0
0
0
0
0
0
0
0
0
0
0
0
0
0
0
0
0
0
0
0
0
0
0
0
0
0
0
0
0
0
0
0
0
0
0
0
0
0
0
0
0
0
0
0
0
0
0
0
0
0
0
0
0
0
0
0
0
0
0
0
0
0
0
0
0
0
0
0
0
0
0
0
0
0
0
0
0
0
0
0
0
0
0
0
0
0
0
0
0
0
0
0
0
0
0
0
0
0
0
0
0
0
0
0
0
0
0
0
0
0
0
0
0
0
0
0
0
0
0
0
0
0
0
0
0
0
0
0
0
0
0
0
0
0
0
0
0
0
0
0
0
0
0
0
0
0
0
0
0
0
0
0
0
0
0
0
0
0
0
0
0
0
0
0
0
0
0
0
0
0
0
0
0
0
0
0
0
0
0
0
0
0
0
0
0
0
0
0
0
0
0
0
0
0
0
0
0
0
0
0
0
0
0
0
0
0
0
0
0
0
0
0
0
0
0
0
0
0
0
0
0
0
0
0
0
0
0
0
0
0
0
0
0
0
0
0
0
0
0
0
0
0
0
0
0
0
0
0
0
0
0
0
0
0
0
0
0
0
0
0
0
0
0
0
0
0
0
0
0
0
0
0
0
0
0
0
0
0
0
0
0
0
0
0
0
0
0
0
0
0
0
0
0
0
0
0
0
0
0
0
0
0
0
0
0
0
0
0
0
0
0
0
0
0
0
0
0
0
0
0
0
0
0
0
0
0
0
0
0
0
0
0
0
0
0
0
0
0
0
0
0
0
0
0
0
0
0
0
0
0
0
0
0
0
0
0
0
0
0
0
0
0
0
0
0
0
0
0
0
0
0
0
0
0
0
0
0
0
0
0
0
0
0
0
0
0
0
0
0
0
0
0
0
0
0
0
0
0
0
0
0
0
0
0
0
0
0
0
0
0
0
0
0
0
0
0
0
0
0
0
0
0
0
0
0
0
0
0
0
0
0
0
0
0
0
0
0
0
0
0
0
0
0
0
0
0
0
0
0
0
0
0
0
0
0
0
0
0
0
0
0
0
0
0
0
0
0
0
0
0
0
0
0
0
0
0
0
0
0
0
0
0
0
0
0
0
0
0
0
0
0
0
0
0
0
0
0
0
0
0
0
0
0
0
0
0
0
0
0
0
0
0
0
0
0
0
0
0
0
0
0
0
0
0
0
0
0
0
0
0
0
0
0
0
0
0
0
0
0
0
0
0
0
0
0
0
0
0
0
0
0
0
0
0
0
0
0
0
0
0
0
0
0
0
0
0
0
0
0
0
0
0
0
0
0
0
0
0
0
0
0
0
0
0
0
0
0
0
0
0
0
0
0
0
0
0
0
0
0
0
0
0
0
0
0
0
0
0
0
0
0
0
0
0
0
0
0
0
0
0
0
0
0
0
0
0
0
0
0
0
0
0
0
0
0
0
0
0
0
0
0
0
0
0
0
0
0
0
0
0
0
0
0
0
0
0
0
0
0
0
0
0
0
0
0
0
0
0
0
0
0
0
0
0
0
0
0
0
0
0
0
0
0
0
0
0
0
0
0
0
0
0
0
0
0
0
0
0
0
0
0
0
0
0
0
0
0
0
0
0
0
0
0
0
0
0
0
0
0
0
0
0
0
0
0
0
0
0
0
0
0
0
0
0
0
0
0
0
0
0
0
0
0
0
0
0
0
0
0
0
0
0
0
0
0
0
0
0
0
0
0
0
0
0
0
0
0
0
0
0
0
0
0
0
0
0
0
0
0
0
0
0
0
0
0
0
0
0
0
0
0
0
0
0
0
0
0
0
0
0
0
0
0
0
0
0
0
0
0
0
0
0
0
0
0
0
0
0
0
0
0
0
0
0
0
0
0
0
0
0
0
0
0
0
0
0
0
0
0
0
0
0
0
0
0
0
0
0
0
0
0
0
0
0
0
0
0
0
0
0
0
0
0
0
0
0
0
0
0
0
0
0
0
0
0
0
0
0
0
0
0
0
0
0
0
0
0
0
0
0
0
0
0
0
0
0
0
0
0
0
0
0
0
0
0
0
0
0
0
0
0
0
0
0
0
0
0
0
0
0
0
0
0
0
0
0
0
0
0
0
0
0
0
0
0
0
0
0
0
0
0
0
0
0
0
0
0
0
0
0
0
0
0
0
0
0
0
0
0
0
0
0
0
0
0
0
0
0
0
0
0
0
0
0
0
0
0
0
0
0
0
0
0
0
0
0
0
0
0
0
0
0
0
0
0
0
0
0
0
0
0
0
0
0
0
0
0
0
0
0
0
0
0
0
0
0
0
0
0
0
0
0
0
0
0
0
0
0
0
0
0
0
0
0
0
0
0
0
0
0
0
0
0
0
0
0
0
0
0
0
0
0
0
0
0
0
0
0
0
0
0
0
0
0
0
0
0
0
0
0
0
0
0
0
0
0
0
0
0
0
0
0
0
0
0
0
0
0
0
0
0
0
0
0
0
0
0
0
0
0
0
0
0
0
0
0
0
0
0
0
0
0
0
0
0
0
0
0
0
0
0
0
0
0
0
0
0
0
0
0
0
0
0
0
0
0
0
0
0
0
0
0
0
0
0
0
0
0
0
0
0
0
0
0
0
0
0
0
0
0
0
0
0
0
0
0
0
0
0
0
0
0
0
0
0
0
0
0
0
0
0
0
0
0
0
0
0
0
0
0
0
0
0
0
0
0
0
0
0
0
0
0
0
0
0
0
0
0
0
0
0
0
0
0
0
0
0
0
0
0
0
0
0
0
0
0
0
0
0
0
0
0
0
0
0
0
0
0
0
0
0
0
0
0
0
0
0
0
0
0
0
0
0
0
0
0
0
0
0
0
0
0
0
0
0
0
0
0
0
0
0
0
0
0
0
0
0
0
0
0
0
0
0
0
0
0
0
0
0
0
0
0
0
0
0
0
0
0
0
0
0
0
0
0
0
0
0
0
0
0
0
0
0
0
0
0
0
0
0
0
0
0
0
0
0
0
0
0
0
0
0
0
0
0
0
0
0
0
0
0
0
0
0
0
0
0
0
0
0
0
0
0
0
0
0
0
0
0
0
0
0
0
0
0
0
0
0
0
0
0
0
0
0
0
0
0
0
0
0
0
0
0
0
0
0
0
0
0
0
0
0
0
0
0
0
0
0
0
0
0
0
0
0
0
0
0
0
0
0
0
0
0
0
0
0
0
0
0
0
0
0
0
0
0
0
0
0
0
0
0
0
0
0
0
0
0
0
0
0
0
0
0
0
0
0
0
0
0
0
0
0
0
0
0
0
0
0
0
0
0
0
0
0
0
0
0
0
0
0
0
0
0
0
0
0
0
0
0
0
0
0
0
0
0
0
0
0
0
0
0
0
0
0
0
0
0
0
0
0
0
0
0
0
0
0
0
0
0
0
0
0
0
0
0
0
0
0
0
0
0
0
0
0
0
0
0
0
0
0
0
0
0
0
0
0
0
0
0
0
0
0
0
0
0
0
0
0
0
0
0
0
0
0
0
0
0
0
0
0
0
0
0
0
0
0
0
0
0
0
0
0
0
0
0
0
0
0
0
0
0
0
0
0
0
0
0
0
0
0
0
0
0
0
0
0
0
0
0
0
0
0
0
0
0
0
0
0
0
0
0
0
0
0
0
0
0
0
0
0
0
0
0
0
0
0
0
0
0
0
0
0
0
0
0
0
0
0
0
0
0
0
0
0
0
0
0
0
0
0
0
0
0
0
0
0
0
0
0
0
0
0
0
0
0
0
0
0
0
0
0
0
0
0
0
0
0
0
0
0
0
0
0
0
0
0
0
0
0
0
0
0
0
0
0
0
0
0
0
0
0
0
0
0
0
0
0
0
0
0
0
0
0
0
0
0
0
0
0
0
0
0
0
0
0
0
0
0
0
0
0
0
0
0
0
0
0
0
0
0
0
0
0
0
0
0
0
0
0
0
0
0
0
0
0
0
0
0
0
0
0
0
0
0
0
0
0
0
0
0
0
0
0
0
0
0
0
0
0
0
0
0
0
0
0
0
0
0
0
0
0
0
0
0
0
0
0
0
0
0
0
0
0
0
0
0
0
0
0
0
0
0
0
0
0
0
0
0
0
0
0
0
0
0
0
0
0
0
0
0
0
0
0
0
0
0
0
0
0
0
0
0
0
0
0
0
0
0
0
0
0
0
0
0
0
0
0
0
0
0
0
0
0
0
0
0
0
0
0
0
0
0
0
0
0
0
0
0
0
0
0
0
0
0
0
0
0
0
0
0
0
0
0
0
0
0
0
0
0
0
0
0
0
0
0
0
0
0
0
0
0
0
0
0
0
0
0
0
0
0
0
0
0
0
0
0
0
0
0
0
0
0
0
0
0
0
0
0
0
0
0
0
0
0
0
0
0
0
0
0
0
0
0
0
0
0
0
0
0
0
0
0
0
0
0
0
0
0
0
0
0
0
0
0
0
0
0
0
0
0
0
0
0
0
0
0
0
0
0
0
0
0
0
0
0
0
0
0
0
0
0
0
0
0
0
0
0
0
0
SCALARS Color_Flag int
LOOKUP_TABLE default
1
2
3
4
5
6
7
8
9
10
11
12
13
14
15
16
17
18
19
20
21
22
23
24
25
26
27
28
29
30
31
32
33
34
35
36
37
38
41
42
43
44
45
46
47
48
49
50
51
52
53
54
55
56
57
58
59
60
61
62
63
64
65
66
67
68
69
70
71
72
73
74
75
76
77
78
81
82
83
84
85
86
87
88
89
90
91
92
93
94
95
96
97
98
99
100
101
102
103
104
105
106
107
108
109
110
111
112
113
114
115
116
117
118
120
121
122
123
124
125
126
127
128
129
130
131
132
133
134
135
136
137
138
139
140
141
142
143
144
145
146
147
148
149
150
151
152
153
154
155
156
157
158
161
162
163
164
165
166
167
168
169
170
171
172
173
174
175
176
177
178
179
180
181
182
183
184
185
186
187
188
189
190
191
192
193
194
195
196
197
198
201
202
203
204
205
206
207
208
209
210
211
212
213
214
215
216
217
218
219
220
221
222
223
224
225
226
227
228
229
230
231
232
233
234
235
236
237
238
241
242
243
244
245
246
247
248
249
250
251
252
253
254
255
256
257
258
259
260
261
262
263
264
265
266
267
268
269
270
271
272
273
274
275
276
277
278
281
282
283
284
285
286
287
288
289
290
291
292
293
294
295
296
297
298
299
300
301
302
303
304
305
306
307
308
309
310
311
312
313
314
315
316
317
318
322
323
324
325
326
327
328
329
330
331
332
333
334
335
336
337
338
339
340
341
342
343
344
345
346
347
348
349
350
351
352
353
354
355
356
357
358
362
363
364
365
366
367
368
369
370
371
372
373
374
375
376
377
378
379
380
381
382
383
384
385
386
387
388
389
390
391
392
393
394
395
396
397
398
402
403
404
405
406
407
408
409
410
411
412
413
414
415
416
417
418
419
420
421
422
423
424
425
426
427
428
429
430
431
432
433
434
435
436
437
438
439
442
443
444
445
446
447
448
449
450
451
452
453
454
455
456
457
458
459
460
461
462
463
464
465
466
467
468
469
470
471
472
473
474
475
476
477
478
479
482
483
484
485
486
487
488
489
490
491
492
493
494
495
496
497
498
499
500
501
502
503
504
505
506
507
508
509
510
511
512
513
514
515
516
517
518
519
522
523
524
525
526
527
528
529
530
531
532
533
534
535
536
537
538
539
540
541
542
543
544
545
546
547
548
549
550
551
552
553
554
555
556
557
558
559
562
563
564
565
566
567
568
569
570
571
572
573
574
575
576
577
578
579
580
581
582
583
584
585
586
587
588
589
590
591
592
593
594
595
596
597
598
599
602
603
604
605
606
607
608
609
610
611
612
613
614
615
616
617
618
619
620
621
622
623
624
625
626
627
628
629
630
631
632
633
634
635
636
637
638
639
642
643
644
645
646
647
648
649
650
651
652
653
654
655
656
657
658
659
660
661
662
663
664
665
666
667
668
669
670
671
672
673
674
675
676
677
678
679
682
683
684
685
686
687
688
689
690
691
692
693
694
695
696
697
698
699
700
701
702
703
704
705
706
707
708
709
710
711
712
713
714
715
716
717
718
719
722
723
724
725
726
727
728
729
730
731
732
733
734
735
736
737
738
739
740
741
742
743
744
745
746
747
748
749
750
751
752
753
754
755
756
757
758
759
762
763
764
765
766
767
768
769
770
771
772
773
774
775
776
777
778
779
780
781
782
783
784
785
786
787
788
789
790
791
792
793
794
795
796
797
798
799
802
803
804
805
806
807
808
809
810
811
812
813
814
815
816
817
818
819
820
821
822
823
824
825
826
827
828
829
830
831
832
833
834
835
836
837
838
839
843
844
845
846
847
848
849
850
851
852
853
854
855
856
857
858
859
860
861
862
863
864
865
866
867
868
869
870
871
872
873
874
875
876
877
878
879
882
883
884
885
886
887
888
889
890
891
892
893
894
895
896
897
898
899
900
901
902
903
904
905
906
907
908
909
910
911
912
913
914
915
916
917
918
919
923
924
925
926
927
928
929
930
931
932
933
934
935
936
937
938
939
940
941
942
943
944
945
946
947
948
949
950
951
952
953
954
955
956
957
958
959
962
963
964
965
966
967
968
969
970
971
972
973
974
975
976
977
978
979
980
981
982
983
984
985
986
987
988
989
990
991
992
993
994
995
996
997
998
999
1002
1003
1004
1005
1006
1007
1008
1009
1010
1011
1012
1013
1014
1015
1016
1017
1018
1019
1020
1021
1022
1023
1024
1025
1026
1027
1028
1029
1030
1031
1032
1033
1034
1035
1036
1037
1038
1039
1042
1043
1044
1045
1046
1047
1048
1049
1050
1051
1052
1053
1054
1055
1056
1057
1058
1059
1060
1061
1062
1063
1064
1065
1066
1067
1068
1069
1070
1071
1072
1073
1074
1075
1076
1077
1078
1081
1082
1083
1084
1085
1086
1087
1088
1089
1090
1091
1092
1093
1094
1095
1096
1097
1098
1099
1100
1101
1102
1103
1104
1105
1106
1107
1108
1109
1110
1111
1112
1113
1114
1115
1116
1117
1118
1121
1122
1123
1124
1125
1126
1127
1128
1129
1130
1131
1132
1133
1134
1135
1136
1137
1138
1139
1140
1141
1142
1143
1144
1145
1146
1147
1148
1149
1150
1151
1152
1153
1154
1155
1156
1157
1158
1161
1162
1163
1164
1165
1166
1167
1168
1169
1170
1171
1172
1173
1174
1175
1176
1177
1178
1179
1180
1181
1182
1183
1184
1185
1186
1187
1188
1189
1190
1191
1192
1193
1194
1195
1196
1197
1198
1201
1202
1203
1204
1205
1206
1207
1208
1209
1210
1211
1212
1213
1214
1215
1216
1217
1218
1219
1220
1221
1222
1223
1224
1225
1226
1227
1228
1229
1230
1231
1232
1233
1234
1235
1236
1237
1238
1241
1242
1243
1244
1245
1246
1247
1248
1249
1250
1251
1252
1253
1254
1255
1256
1257
1258
1259
1260
1261
1262
1263
1264
1265
1266
1267
1268
1269
1270
1271
1272
1273
1274
1275
1276
1277
1278
1281
1282
1283
1284
1285
1286
1287
1288
1289
1290
1291
1292
1293
1294
1295
1296
1297
1298
1299
1300
1301
1302
1303
1304
1305
1306
1307
1308
1309
1310
1311
1312
1313
1314
1315
1316
1317
1318
1321
1322
1323
1324
1325
1326
1327
1328
1329
1330
1331
1332
1333
1334
1335
1336
1337
1338
1339
1340
1341
1342
1343
1344
1345
1346
1347
1348
1349
1350
1351
1352
1353
1354
1355
1356
1357
1361
1362
1363
1364
1365
1366
1367
1368
1369
1370
1371
1372
1373
1374
1375
1376
1377
1378
1379
1380
1381
1382
1383
1384
1385
1386
1387
1388
1389
1390
1391
1392
1393
1394
1395
1396
1397
1398
1401
1402
1403
1404
1405
1406
1407
1408
1409
1410
1411
1412
1413
1414
1415
1416
1417
1418
1419
1420
1421
1422
1423
1424
1425
1426
1427
1428
1429
1430
1431
1432
1433
1434
1435
1436
1437
1438
1441
1442
1443
1444
1445
1446
1447
1448
1449
1450
1451
1452
1453
1454
1455
1456
1457
1458
1459
1460
1461
1462
1463
1464
1465
1466
1467
1468
1469
1470
1471
1472
1473
1474
1475
1476
1477
1478
1481
1482
1483
1484
1485
1486
1487
1488
1489
1490
1492
1493
1494
1496
1497
1498
1499
1500
1501
1502
1503
1504
1505
1506
1507
1508
1509
1510
1511
1512
1513
1514
1515
1516
1517
1518
1521
1522
1524
1528
1531
1535
1542
1546
1548
1550
1552
1554
1556
1557
1558
1563
1565
1567
1569
1570
1571
1572
1573
1574
1575
1576
1577
1578
1579
1580
1581
1583
1585
1587
1589
1591
1593
1595
1416
1016
1083
888
1263
55
937
1261
385
183
695
552
1252
917
1156
1490
1224
286
653
619
265
142
1322
418
295
1246
76
489
1556
111
758
878
1116
1487
944
746
1301
201
494
784
780
951
283
1497
1091
850
542
69
1503
1466
195
599
971
496
43
1106
137
533
659
505
118
965
1361
188
927
1410
886
1424
1509
486
52
693
1296
231
17
1567
625
1097
379
307
1219
64
1456
389
1250
1433
919
514
167
176
1140
1419
639
621
445
692
906
1286
390
753
638
792
896
936
1154
1175
796
1024
1002
1265
1056
609
1338
1375
433
305
1491
603
342
1087
1404
1270
1036
87
1298
1525
550
81
727
1378
457
86
544
674
1051
711
584
363
1070
1256
1436
212
575
531
1066
150
1182
216
1269
969
41
1393
507
1211
765
647
1217
999
713
449
1282
654
845
106
1073
1110
767
501
1133
515
339
642
952
108
454
690
1462
607
688
509
899
498
1157
558
1364
467
1216
223
855
712
1105
1085
311
346
215
229
559
1038
274
887
585
131
70
789
366
1103
1228
1026
175
1415
851
724
633
19
1323
1011
1293
1374
84
155
186
940
1365
383
284
1422
1518
667
204
832
1575
963
434
327
737
1184
1401
992
1185
697
1455
334
3
1552
856
1
1167
91
93
149
246
1021
408
750
13
543
678
264
1512
1064
423
317
977
1187
329
556
1126
1297
1598
437
616
1507
10
1391
314
873
1101
424
554
1350
749
1192
1372
428
21
365
1367
1181
875
694
1506
1255
464
1012
948
1403
1317
978
974
1463
299
227
1155
1330
1569
270
1141
1090
1467
1017
351
179
1214
785
1368
643
285
1183
341
154
63
1197
679
1366
304
764
1104
1207
282
772
1526
793
1441
1546
1230
1413
415
698
1149
113
374
1166
629
645
166
1395
897
1555
1129
869
1425
1076
1316
1495
27
934
104
1352
838
957
287
1528
316
1577
187
47
168
1253
255
130
1468
910
252
741
1303
773
1020
205
1373
393
928
905
1173
443
469
438
1178
31
1257
256
925
373
943
1078
235
1447
914
392
932
830
783
1370
818
1179
1356
908
538
754
250
774
24
699
1493
1188
1482
371
127
1114
276
592
343
209
827
715
1362
982
1428
233
1148
479
871
499
278
478
949
803
244
1096
1174
101
266
848
1233
953
984
1499
182
1014
1385
900
448
483
1130
993
1294
862
802
534
1300
1308
745
769
1061
547
1206
884
853
430
689
335
1550
567
196
463
109
224
185
23
819
313
260
516
207
1053
115
1489
241
61
1190
797
68
1191
1195
622
675
1084
1025
1548
885
842
1121
810
762
725
545
1388
686
956
831
65
672
332
907
1264
1347
1432
614
808
44
53
1326
615
1067
411
355
597
1307
548
15
1208
1194
92
1345
1241
236
217
1465
1152
1032
930
1266
1311
730
1394
1113
1068
425
517
107
868
1271
1485
54
522
51
432
1557
388
700
606
459
861
986
1510
1431
503
582
673
1234
4
59
67
563
382
859
1203
1275
650
124
202
1172
924
1351
816
794
1242
402
742
747
177
48
1469
208
271
958
1202
826
1176
1354
807
577
596
178
804
1162
1177
612
610
321
1511
983
844
998
872
865
740
1471
933
637
25
56
579
269
370
414
576
493
728
743
915
1196
1450
903
759
846
1134
1004
918
1107
763
1312
1429
1369
100
193
297
83
1283
624
1077
574
682
526
380
352
1237
262
470
833
189
1449
96
1327
1278
135
732
1318
1063
1310
472
518
1574
843
1003
562
412
203
551
1387
565
1386
1010
356
557
537
771
26
702
805
144
778
309
121
398
1383
684
513
1414
1062
1095
1336
325
1363
1222
593
1389
409
22
219
473
587
837
1344
1570
979
1540
1220
735
707
1333
410
939
1435
510
268
1453
511
857
1305
71
330
85
658
152
1445
1405
465
945
1339
378
528
1522
180
1262
1337
1081
435
911
892
1142
959
1170
1046
275
962
966
417
344
1019
170
453
347
323
1545
277
1508
1109
662
226
775
1486
1058
78
1377
11
1477
657
997
206
9
864
322
1251
350
125
58
588
20
29
369
656
232
1346
1384
126
1289
1538
345
210
148
1355
975
174
901
245
1483
555
1205
524
324
1108
663
1434
1371
1481
811
1544
1553
225
211
729
806
273
541
895
1054
194
73
1034
1037
110
444
1137
620
145
482
391
439
1516
1226
972
396
326
75
1277
954
546
779
987
590
586
328
103
635
608
315
790
611
1382
1381
291
436
716
368
756
530
222
1325
719
847
161
1343
752
751
989
348
57
988
1052
1131
114
156
300
290
788
296
1426
766
605
1138
617
293
668
683
302
1075
95
442
1407
105
738
123
1579
1290
1086
12
1474
946
947
397
1502
539
1236
512
1494
37
913
1209
456
5
129
553
651
447
669
431
1223
564
318
1353
484
416
882
1112
671
420
461
1440
1287
809
1470
98
709
1128
16
426
817
973
1292
1571
163
1150
1168
1125
889
583
527
985
77
301
870
46
455
849
1238
1099
696
1163
613
134
147
468
1288
1029
722
474
824
941
1500
1047
298
1201
829
1551
1442
931
169
171
1291
60
1244
14
581
970
1153
714
1117
1048
508
504
748
1143
1042
357
306
891
636
49
218
462
34
676
1329
1189
815
138
594
1542
950
1094
62
572
677
1451
1268
230
117
427
1396
221
898
422
604
1444
376
701
1484
394
916
310
1411
1245
1464
303
717
781
1043
523
1204
877
292
6
466
536
102
1035
128
1515
568
259
1459
1392
791
968
1180
1231
500
89
242
1127
703
1524
1313
1573
495
519
8
627
655
289
184
1281
1044
623
1412
876
1100
1258
1457
94
902
823
1438
1273
632
1225
143
491
446
1135
731
866
1030
1492
1306
1088
935
1033
1328
312
116
1488
1186
786
1169
1267
573
1437
1122
419
1007
926
1247
1082
942
1304
883
451
1299
1146
860
578
929
407
1136
1583
664
1554
813
739
377
1027
1335
1018
770
165
122
994
1248
228
1060
214
1022
452
540
798
1009
708
191
36
1446
1334
139
1314
1147
192
272
1443
254
82
32
492
237
190
644
1420
258
1111
955
333
1118
777
1324
1285
247
874
471
1123
867
1243
1055
734
602
1045
1514
1460
1340
904
281
1260
776
726
646
591
1501
238
1072
589
267
1144
172
634
1005
336
1274
243
349
893
173
45
744
1379
506
821
153
1145
248
97
938
909
1132
1102
1331
353
1151
1089
384
1472
828
852
1397
1276
1475
234
529
1315
1476
1171
1430
35
1498
1408
476
490
1549
358
99
580
1259
820
706
1406
354
1198
1418
140
18
157
1232
631
213
981
33
964
1558
1023
340
460
733
477
1028
858
1302
1074
1284
1496
249
1008
666
1517
1409
1057
450
566
294
395
1523
1161
995
1098
1358
112
570
1006
1504
458
626
571
863
28
1360
923
132
1213
1458
485
1093
660
146
535
42
403
1272
1357
736
381
141
652
723
1227
387
757
367
253
133
362
404
1059
1521
649
825
912
406
331
197
685
894
812
386
1342
88
364
1165
628
1332
814
1417
836
782
1321
976
1448
1124
1423
1031
487
1547
967
429
718
337
1139
1049
1427
768
822
1454
261
1390
1092
991
1215
1065
665
1249
835
7
198
1115
1218
405
72
710
922
162
181
1015
879
421
257
890
1421
1452
1039
569
1309
996
661
1380
1576
50
1473
618
151
1229
787
1235
1254
854
1164
136
158
1505
755
413
1013
839
990
1210
251
1069
687
549
1071
1341
372
502
834
497
705
799
475
525
1402
670
630
1562
74
488
1295
164
1349
308
1050
1376
66
375
338
980
1212
90
263
648
1461
704
532
1158
598
288
595
795
691
1513
1348
1221
1193
220
