# vtk DataFile Version 3.0
Motion
ASCII
DATASET UNSTRUCTURED_GRID
POINTS 6400 float
19.6524 17.2076 1.53688
19.6198 -16.4543 1.46904
19.6531 -15.9181 1.30168
19.5951 -14.7224 1.24579
19.5159 -13.5743 1.2568
19.3715 -12.2943 1.53575
19.1518 -11.5941 1.95735
19.1945 -10.5243 1.92494
19.2304 -9.61395 1.9206
19.6311 -8.55864 1.13229
19.6829 -8.01636 1.11611
19.5418 -6.99974 1.7353
19.4952 -6.51387 1.9172
19.8202 -5.37804 1.57052
19.9519 -4.85221 1.44268
-19.8067 -3.7555 1.29305
-19.7614 -3.22967 1.3844
19.9302 -2.17423 2.2226
19.9356 -1.6492 2.30701
-19.5705 -0.623139 1.69052
-19.5151 -0.112285 1.69117
-19.826 0.892427 2.35468
-19.7607 1.38401 2.32111
-19.5487 2.21243 2.08217
-19.5827 3.92264 2.16994
-19.765 5.22757 2.39683
-19.7958 5.71767 2.404
-19.5756 6.41865 2.06085
-19.4726 7.16793 1.82969
19.9923 8.43889 2.34187
19.9701 8.85882 2.32146
-19.6295 9.80409 1.65654
-19.665 10.2974 1.61869
19.7361 11.7101 2.20706
-19.9563 12.0472 1.70627
19.7847 13.5748 1.84626
19.7562 14.0614 1.80912
19.7059 15.1358 1.72121
19.7582 15.6579 1.55396
19.7151 16.7017 1.48885
19.8371 -17.1929 1.12391
-19.6506 17.1713 -0.00814642
-19.5017 -17.2331 -0.388939
-18.8519 -17.2921 -1.46748
-18.5435 -17.0948 -1.84343
-17.8338 -16.6448 -2.47464
-17.4828 -16.3079 -2.68418
-16.2577 -16.5588 -2.97167
-15.8923 -16.2154 -2.98791
-15.0018 -17.065 -2.8726
-14.3672 -16.4443 -2.57476
-13.9482 -16.739 -2.37424
-13.136 -16.5243 -1.5863
-12.8539 -16.8128 -1.27884
-12.3167 -16.451 -0.23649
-12.0947 -16.662 0.136985
-11.576 -16.6163 1.12714
-11.3472 -17.1031 1.34572
-10.6655 -17.0385 2.17333
-10.3008 -17.2522 2.43141
-9.30318 -17.041 2.97715
-8.45052 17.2972 3.10571
-7.93546 -17.0357 3.11433
-6.76491 -17.1348 2.76733
-6.34616 -16.8605 2.49365
-5.74151 -17.1847 1.98101
-5.14259 -16.8582 1.04497
-4.90725 -17.1816 0.641176
-4.66257 -16.9244 -0.00481325
-4.22779 17.1651 -0.888348
-4.11173 -17.064 -1.22283
-3.52436 -16.8189 -2.1249
-3.25971 -16.4923 -2.4182
-2.22164 -16.9388 -3.0554
-1.51655 -16.4599 -3.27088
-0.639538 -16.6293 -3.30682
-0.163722 -16.382 -3.22946
1.21426 -16.9967 -2.56045
1.07236 -16.5941 -2.63451
1.98739 -17.0821 -1.68828
2.24101 -16.7194 -1.09989
2.42855 -17.0578 -0.675064
2.71867 -16.8037 0.336804
2.85264 -17.0343 0.735402
3.15065 -17.1173 1.46386
3.57178 -17.0616 2.1412
4.44642 -16.4398 2.90521
4.80018 -16.6483 3.08454
5.98396 -16.2813 3.31463
6.41179 -16.5804 3.28284
7.52076 -16.1892 2.87793
8.19948 -16.8337 2.30833
8.22056 -16.4558 2.27263
8.75212 -17.0425 1.58332
9.14127 -16.3544 0.588064
9.30692 -16.5993 0.0413265
9.52018 -16.5043 -0.778949
9.7141 -17.1076 -1.37208
10.0154 -16.7728 -2.06442
10.6836 -17.2636 -2.94172
11.0576 -16.9116 -3.25261
12.1636 -17.1068 -3.74432
12.6944 -16.8305 -3.78694
13.5393 -17.1278 -3.65404
14.1876 -16.7933 -3.2752
14.8051 -17.1998 -2.38503
14.8901 -16.896 -1.92684
14.8668 -17.1603 -1.1156
14.6818 -16.8351 -0.417225
14.4589 -17.1682 0.281036
14.2232 -16.7271 1.316
14.2278 -17.0442 1.77183
14.6359 -16.8377 2.89446
14.9624 -17.133 3.23839
16.0742 -16.8528 3.75919
16.6211 -17.1136 3.77629
17.4648 -16.8213 3.61719
18.5506 -17.2251 2.97322
19.8021 -16.7004 1.11318
-19.7677 -16.3409 -0.00877859
-19.5669 -16.6222 -0.393957
-19.1539 -16.107 -1.26939
-18.733 -16.1044 -1.81048
-18.5069 -15.6508 -2.0968
-17.4932 -15.8244 -2.71686
-17.0952 -15.5267 -2.87368
-16.1982 -15.706 -2.98781
-15.4731 -15.3652 -2.93735
-14.393 -15.9197 -2.54453
-13.9761 -15.5596 -2.24762
-13.142 -15.983 -1.4717
-12.7537 -15.7673 -0.837795
-12.4629 -15.9877 -0.370149
-12.2209 -15.5729 0.243319
-11.6129 -16.0191 1.23475
-11.3905 -15.9314 1.58291
-10.8646 -16.452 2.08698
-10.4841 -15.9058 2.51584
-9.46696 -16.507 2.97912
-9.1085 -16.24 3.10452
-7.90088 -16.4945 3.12949
-7.50368 -16.1836 3.05249
-6.308 -16.2968 2.43754
-5.9991 -16.0266 2.14149
-5.23386 -16.2714 1.09998
-5.09269 -15.9434 0.748234
-4.56952 -16.4493 -0.366426
-4.62042 -15.9731 -0.378952
-4.19073 -16.0657 -1.28141
-3.79845 -15.7126 -1.93912
-3.19846 -15.9913 -2.51647
-2.80966 -15.8012 -2.8222
-1.71178 -15.9378 -3.24843
-1.32026 -15.5548 -3.30476
-0.0906476 -15.8231 -3.18468
0.333528 -15.6069 -3.01136
1.27514 -16.0961 -2.43061
1.56326 -15.8586 -2.09217
2.18369 -16.1301 -1.11475
2.33706 -15.949 -0.693832
2.62423 -16.3454 0.102078
2.81751 -15.9515 0.758662
3.3508 -16.2608 1.84471
3.59845 -15.881 2.18225
4.47903 -15.8821 2.90996
4.86338 -15.4929 3.07736
6.10059 -15.735 3.2906
6.86408 -15.3887 3.14407
7.33477 -15.5988 2.97011
8.24346 -15.3966 2.27501
8.61862 -16.2283 1.75711
8.96998 -15.5925 1.11498
9.10562 -15.8812 0.706491
9.34217 -15.4457 -0.0811827
9.61079 -16.0662 -1.09692
9.88904 -15.7245 -1.81154
10.1875 -16.3437 -2.34203
10.7885 -16.1359 -3.02793
11.1418 -16.3197 -3.30918
11.5746 -15.9947 -3.533
12.8785 -16.2708 -3.76461
13.3996 -15.9504 -3.64927
14.3583 -16.2694 -3.05317
14.7506 -16.0667 -2.34714
14.8655 -16.3512 -1.90291
14.7603 -15.8789 -0.783118
14.6514 -16.2195 -0.363602
14.3075 -15.9092 0.784722
14.2302 -16.1619 1.23569
14.3795 -15.9677 2.42543
14.5878 -16.279 2.82934
15.5444 -15.9822 3.6074
15.9717 -16.2675 3.74447
17.2058 -15.9814 3.69743
17.5997 -16.296 3.56886
18.6677 -16.142 2.82841
19.9616 -15.5855 0.487065
-19.8383 -15.8105 0.0300834
-19.7901 -14.921 -0.300408
-19.3772 -15.5415 -1.024
-18.8566 -14.8862 -1.85098
-18.5443 -15.0992 -2.13398
-17.343 -15.0281 -2.81407
-17.1993 -14.7082 -2.88229
-15.8377 -14.5507 -3.01257
-15.4204 -14.8484 -2.93319
-14.3474 -14.7156 -2.47385
-13.9874 -15.0024 -2.2177
-13.4439 -14.6645 -1.63955
-12.836 -15.2531 -0.850819
-12.5552 -14.8344 -0.222451
-12.3114 -15.0393 0.21346
-11.8307 -14.7823 1.18628
-11.3463 -15.3645 1.76148
-10.9231 -14.8807 2.30063
-10.3828 -15.3693 2.65454
-9.95358 -15.2849 2.89682
-9.24292 -15.6998 3.11327
-8.11817 -15.4271 3.19459
-7.61025 -15.6773 3.08992
-6.58144 -15.1613 2.60772
-5.98389 -15.4526 2.07952
-5.69799 -15.1693 1.70455
-5.13873 -15.3326 0.71152
-4.99758 -15.002 0.295883
-4.55139 -15.515 -0.682472
-4.3011 -15.0513 -1.30566
-3.85814 -15.1815 -1.94528
-3.538 -14.8662 -2.33869
-2.63686 -15.2772 -2.94143
-1.87052 -14.8701 -3.22404
-1.37309 -15.0479 -3.29864
-0.172395 -14.6668 -3.14994
0.49514 -15.0926 -2.88198
0.960186 -14.8971 -2.54825
1.51587 -15.2522 -2.05817
2.11148 -14.8574 -1.00351
2.362 -15.4902 -0.515116
2.5658 -15.1365 0.157363
2.83417 -15.4842 0.85656
2.99783 -15.2501 1.25426
3.62185 -15.2817 2.20513
3.94886 -14.867 2.50659
4.70383 -14.9515 2.9787
5.42603 -14.5711 3.20635
6.72824 -14.7891 3.17198
7.12528 -14.4525 3.04002
8.19888 -14.8312 2.33036
8.46264 -14.6114 2.03125
9.01599 -15.0465 1.02544
9.21075 -14.5602 0.474221
9.39841 -14.8979 -0.266578
9.51316 -14.7487 -0.701026
9.87398 -15.174 -1.77239
10.0584 -14.8828 -2.13499
10.3029 -15.0973 -2.50061
10.8189 -14.7435 -3.0614
11.6944 -15.4221 -3.57456
12.1937 -15.1589 -3.71534
13.5429 -15.3409 -3.58069
14.0204 -15.0637 -3.2867
14.7541 -15.5008 -2.23364
14.8364 -15.1024 -1.38433
14.778 -15.3304 -0.877663
14.4538 -15.1423 0.285621
14.3337 -15.4111 0.718829
14.2812 -15.0658 1.93792
14.3786 -15.4014 2.37737
15.137 -15.1351 3.35132
15.5082 -15.3683 3.57463
16.7959 -15.15 3.75551
17.217 -15.4654 3.68277
18.3039 -15.3095 3.12413
18.6406 -15.587 2.82911
19.897 -15.1017 0.54495
19.9505 -14.3173 0.228105
-19.7479 -14.4078 -0.522069
-19.5915 -14.2059 -0.887535
-18.9008 -14.3255 -1.87974
-18.6144 -14.0129 -2.19942
-17.4966 -14.1993 -2.84183
-17.1245 -13.8784 -2.97344
-15.8575 -14.0395 -3.03091
-15.4537 -13.7602 -2.95878
-14.3556 -14.1263 -2.46269
-14.0208 -13.8551 -2.19129
-13.4691 -14.1065 -1.62429
-13.0692 -13.8346 -1.0081
-12.6989 -14.338 -0.404721
-12.2378 -13.9995 0.618069
-11.9935 -14.2229 1.03234
-11.6338 -13.9378 1.64989
-10.9627 -14.3025 2.33724
-10.5649 -14.0515 2.66546
-9.91931 -14.7011 2.97027
-8.75806 -14.5734 3.24699
-8.26254 -14.8739 3.22913
-7.12333 -14.4886 2.92285
-6.7553 -14.6015 2.7191
-6.47317 -14.2579 2.49085
-5.68468 -14.5694 1.62085
-5.49654 -14.2389 1.25508
-5.02135 -14.4416 0.207196
-4.89438 -14.1802 -0.199013
-4.41148 -14.5001 -1.22945
-4.24997 -14.1569 -1.57684
-3.49075 -14.3235 -2.44506
-3.1411 -14.0871 -2.72584
-1.92398 -14.3562 -3.21875
-1.47877 -13.9964 -3.28359
-0.228171 -14.1254 -3.1375
0.20103 -13.9005 -2.9453
0.92835 -14.341 -2.51625
1.43341 -14.0364 -1.98336
2.05468 -14.2914 -1.01241
2.16857 -13.8767 -0.682034
2.50691 -14.5899 0.0734282
2.63952 -14.3005 0.481925
2.94335 -14.719 1.16863
3.48305 -14.1956 2.03597
3.875 -14.3341 2.42781
4.47202 -13.8041 2.85312
5.57902 -14.0433 3.22031
6.30551 -13.6225 3.22031
7.16068 -13.8881 3.02414
7.60594 -13.6231 2.81013
8.48148 -14.0725 2.02405
8.73065 -13.8336 1.67746
9.18766 -14.0432 0.621746
9.30817 -13.7193 0.241833
9.55483 -14.2372 -0.803489
9.68066 -13.9534 -1.19198
10.0928 -14.3632 -2.17392
10.4785 -13.8494 -2.68442
11.0591 -14.2512 -3.23649
11.7915 -14.2069 -3.60498
12.2416 -14.6032 -3.72377
13.4632 -14.2464 -3.632
14.1656 -14.5515 -3.17729
14.5289 -14.3388 -2.78081
14.8556 -14.5565 -1.44718
14.816 -14.2488 -0.948978
14.4617 -14.5959 0.326977
14.3265 -14.2256 1.06622
14.3181 -14.5228 1.98072
14.4892 -14.3113 2.47875
15.0092 -14.594 3.20006
15.7048 -14.1727 3.598
16.8814 -14.6249 3.72341
17.3774 -14.3897 3.59023
18.1313 -14.7302 3.21644
18.9153 -14.3727 2.41563
19.7067 -13.7284 0.787138
19.7736 -13.2648 0.537403
-19.882 -13.1788 -0.436267
-19.5883 -13.5313 -1.01231
-19.3786 -13.2546 -1.40803
-18.6106 -13.464 -2.26092
-18.269 -13.1567 -2.54394
-17.1601 -13.3865 -2.99657
-16.7723 -13.0693 -3.08491
-15.4996 -13.2246 -2.9849
-15.1278 -12.9463 -2.87269
-14.0249 -13.2783 -2.18461
-13.7514 -12.9849 -1.91115
-13.0292 -13.2727 -0.891401
-12.8541 -13.1256 -0.541714
-12.321 -13.4795 0.547425
-12.1692 -13.1515 0.89462
-11.554 -13.4142 1.83033
-11.1001 -13.081 2.34083
-10.4329 -13.6108 2.79082
-10.0159 -13.4414 3.02371
-8.83115 -14.0493 3.26733
-8.34404 -13.8348 3.26071
-8.34145 -13.3747 3.27485
-7.52222 -13.1786 3.09115
-6.47903 -13.7776 2.47547
-6.17791 -13.4433 2.16874
-5.51504 -13.6501 1.19442
-5.36115 -13.3489 0.801878
-4.91982 -13.6455 -0.280786
-4.77776 -13.3794 -0.704666
[...]
CELL_DATA 2946
SCALARS APICAL_flag int
LOOKUP_TABLE default
0
0
0
0
0
0
0
0
0
0
0
0
0
0
0
0
0
0
0
0
0
0
0
0
0
0
0
0
0
0
0
0
0
0
0
0
0
0
0
0
0
0
0
0
0
0
0
0
0
0
0
0
0
0
0
0
0
0
0
0
0
0
0
0
0
0
0
0
0
0
0
0
0
0
0
0
0
0
0
0
0
0
0
0
0
0
0
0
0
0
0
0
0
0
0
0
0
0
0
0
0
0
0
0
0
0
0
0
0
0
0
0
0
0
0
0
0
0
0
0
0
0
0
0
0
0
0
0
0
0
0
0
0
0
0
0
0
0
0
0
0
0
0
0
0
0
0
0
0
0
0
0
0
0
0
0
0
0
0
0
0
0
0
0
0
0
0
0
0
0
0
0
0
0
0
0
0
0
0
0
0
0
0
0
0
0
0
0
0
0
0
0
0
0
0
0
0
0
0
0
0
0
0
0
0
0
0
0
0
0
0
0
0
0
0
0
0
0
0
0
0
0
0
0
0
0
0
0
0
0
0
0
0
0
0
0
0
0
0
0
0
0
0
0
0
0
0
0
0
0
0
0
0
0
0
0
0
0
0
0
0
0
0
0
0
0
0
0
0
0
0
0
0
0
0
0
0
0
0
0
0
0
0
0
0
0
0
0
0
0
0
0
0
0
0
0
0
0
0
0
0
0
0
0
0
0
0
0
0
0
0
0
0
0
0
0
0
0
0
0
0
0
0
0
0
0
0
0
0
0
0
0
0
0
0
0
0
0
0
0
0
0
0
0
0
0
0
0
0
0
0
0
0
0
0
0
0
0
0
0
0
0
0
0
0
0
0
0
0
0
0
0
0
0
0
0
0
0
0
0
0
0
0
0
0
0
0
0
0
0
0
0
0
0
0
0
0
0
0
0
0
0
0
0
0
0
0
0
0
0
0
0
0
0
0
0
0
0
0
0
0
0
0
0
0
0
0
0
0
0
0
0
0
0
0
0
0
0
0
0
0
0
0
0
0
0
0
0
0
0
0
0
0
0
0
0
0
0
0
0
0
0
0
0
0
0
0
0
0
0
0
0
0
0
0
0
0
0
0
0
0
0
0
0
0
0
0
0
0
0
0
0
0
0
0
0
0
0
0
0
0
0
0
0
0
0
0
0
0
0
0
0
0
0
0
0
0
0
0
0
0
0
0
0
0
0
0
0
0
0
0
0
0
0
0
0
0
0
0
0
0
0
0
0
0
0
0
0
0
0
0
0
0
0
0
0
0
0
0
0
0
0
0
0
0
0
0
0
0
0
0
0
0
0
0
0
0
0
0
0
0
0
0
0
0
0
0
0
0
0
0
0
0
0
0
0
0
0
0
0
0
0
0
0
0
0
0
0
0
0
0
0
0
0
0
0
0
0
0
0
0
0
0
0
0
0
0
0
0
0
0
0
0
0
0
0
0
0
0
0
0
0
0
0
0
0
0
0
0
0
0
0
0
0
0
0
0
0
0
0
0
0
0
0
0
0
0
0
0
0
0
0
0
0
0
0
0
0
0
0
0
0
0
0
0
0
0
0
0
0
0
0
0
0
0
0
0
0
0
0
0
0
0
0
0
0
0
0
0
0
0
0
0
0
0
0
0
0
0
0
0
0
0
0
0
0
0
0
0
0
0
0
0
0
0
0
0
0
0
0
0
0
0
0
0
0
0
0
0
0
0
0
0
0
0
0
0
0
0
0
0
0
0
0
0
0
0
0
0
0
0
0
0
0
0
0
0
0
0
0
0
0
0
0
0
0
0
0
0
0
0
0
0
0
0
0
0
0
0
0
0
0
0
0
0
0
0
0
0
0
0
0
0
0
0
0
0
0
0
0
0
0
0
0
0
0
0
0
0
0
0
0
0
0
0
0
0
0
0
0
0
0
0
0
0
0
0
0
0
0
0
0
0
0
0
0
0
0
0
0
0
0
0
0
0
0
0
0
0
0
0
0
0
0
0
0
0
0
0
0
0
0
0
0
0
0
0
0
0
0
0
0
0
0
0
0
0
0
0
0
0
0
0
0
0
0
0
0
0
0
0
0
0
0
0
0
0
0
0
0
0
0
0
0
0
0
0
0
0
0
0
0
0
0
0
0
0
0
0
0
0
0
0
0
0
0
0
0
0
0
0
0
0
0
0
0
0
0
0
0
0
0
0
0
0
0
0
0
0
0
0
0
0
0
0
0
0
0
0
0
0
0
0
0
0
0
0
0
0
0
0
0
0
0
0
0
0
0
0
0
0
0
0
0
0
0
0
0
0
0
0
0
0
0
0
0
0
0
0
0
0
0
0
0
0
0
0
0
0
0
0
0
0
0
0
0
0
0
0
0
0
0
0
0
0
0
0
0
0
0
0
0
0
0
0
0
0
0
0
0
0
0
0
0
0
0
0
0
0
0
0
0
0
0
0
0
0
0
0
0
0
0
0
0
0
0
0
0
0
0
0
0
0
0
0
0
0
0
0
0
0
0
0
0
0
0
0
0
0
0
0
0
0
0
0
0
0
0
0
0
0
0
0
0
0
0
0
0
0
0
0
0
0
0
0
0
0
0
0
0
0
0
0
0
0
0
0
0
0
0
0
0
0
0
0
0
0
0
0
0
0
0
0
0
0
0
0
0
0
0
0
0
0
0
0
0
0
0
0
0
0
0
0
0
0
0
0
0
0
0
0
0
0
0
0
0
0
0
0
0
0
0
0
0
0
0
0
0
0
0
0
0
0
0
0
0
0
0
0
0
0
0
0
0
0
0
0
0
0
0
0
0
0
0
0
0
0
0
0
0
0
0
0
0
0
0
0
0
0
0
0
0
0
0
0
0
0
0
0
0
0
0
0
0
0
0
0
0
0
0
0
0
0
0
0
0
0
0
0
0
0
0
0
0
0
0
0
0
0
0
0
0
0
0
0
0
0
0
0
0
0
0
0
0
0
0
0
0
0
0
0
0
0
0
0
0
0
0
0
0
0
0
0
0
0
0
0
0
0
0
0
0
0
0
0
0
0
0
0
0
0
0
0
0
0
0
0
0
0
0
0
0
0
0
0
0
0
0
0
0
0
0
0
0
0
0
0
0
0
0
0
0
0
0
0
0
0
0
0
0
0
0
0
0
0
0
0
0
0
0
0
0
0
0
0
0
0
0
0
0
0
0
0
0
0
0
0
0
0
0
0
0
0
0
0
0
0
0
0
0
0
0
0
0
0
0
0
0
0
0
0
0
0
0
0
0
0
0
0
0
0
0
0
0
0
0
0
0
0
0
0
0
0
0
0
0
0
0
0
0
0
0
0
0
0
0
0
0
0
0
0
0
0
0
0
0
0
0
0
0
0
0
0
0
0
0
0
0
0
0
0
0
0
0
0
0
0
0
0
0
0
0
0
0
0
0
0
0
0
0
0
0
0
0
0
0
0
0
0
0
0
0
0
0
0
0
0
0
0
0
0
0
0
0
0
0
0
0
0
0
0
0
0
0
0
0
0
0
0
0
0
0
0
0
0
0
0
0
0
0
0
0
0
0
0
0
0
0
0
0
0
0
0
0
0
0
0
0
0
0
0
0
0
0
0
0
0
0
0
0
0
0
0
0
0
0
0
0
0
0
0
0
0
0
0
0
0
0
0
0
0
0
0
0
0
0
0
0
0
0
0
0
0
0
0
0
0
0
0
0
0
0
0
0
0
0
0
0
0
0
0
0
0
0
0
0
0
0
0
0
0
0
0
0
0
0
0
0
0
0
0
0
0
0
0
0
0
0
0
0
0
0
0
0
0
0
0
0
0
0
0
0
0
0
0
0
0
0
0
0
0
0
0
0
0
0
0
0
0
0
0
0
0
0
0
0
0
0
0
0
0
0
0
0
0
0
0
0
0
0
0
0
0
0
0
0
0
0
0
0
0
0
0
0
0
0
0
0
0
0
0
0
0
0
0
0
0
0
0
0
0
0
0
0
0
0
0
0
0
0
0
0
0
0
0
0
0
0
0
0
0
0
0
0
0
0
0
0
0
0
0
0
0
0
0
0
0
0
0
0
0
0
0
0
0
0
0
0
0
0
0
0
0
0
0
0
0
0
0
0
0
0
0
0
0
0
0
0
0
0
0
0
0
0
0
0
0
0
0
0
0
0
0
0
0
0
0
0
0
0
0
0
0
0
0
0
0
0
0
0
0
0
0
0
0
0
0
0
0
0
0
0
0
0
0
0
0
0
0
0
0
0
0
0
0
0
0
0
0
0
0
0
0
0
0
0
0
0
0
0
0
0
0
0
0
0
0
0
0
0
0
0
0
0
0
0
0
0
0
0
0
0
0
0
0
0
0
0
0
0
0
0
0
0
0
0
0
0
0
0
0
0
0
0
0
0
0
0
0
0
0
0
0
0
0
0
0
0
0
0
0
0
0
0
0
0
0
0
0
0
0
0
0
0
0
0
0
0
0
0
0
0
0
0
0
0
0
0
0
0
0
0
0
0
0
0
0
0
0
0
0
0
0
0
0
0
0
0
0
0
0
0
0
0
0
0
0
0
0
0
0
0
0
0
0
0
0
0
0
0
0
0
0
0
0
0
0
0
0
0
0
0
0
0
0
0
0
0
0
0
0
0
0
0
0
0
0
0
0
0
0
0
0
0
0
0
0
0
0
0
0
0
0
0
0
0
0
0
0
0
0
0
0
0
0
0
0
0
0
0
0
0
0
0
0
0
0
0
0
0
0
0
0
0
0
0
0
0
0
0
0
0
0
0
0
0
0
0
0
0
0
0
0
0
0
0
0
0
0
0
0
0
0
0
0
0
0
0
0
0
0
0
0
0
0
0
0
0
0
0
0
0
0
0
0
0
0
0
0
0
0
0
0
0
0
0
0
0
0
0
0
0
0
0
0
0
0
0
0
0
0
0
0
0
0
0
0
0
0
0
0
0
0
0
0
0
0
0
0
0
0
0
0
0
0
0
0
0
0
0
0
0
0
0
0
0
0
0
0
0
0
0
0
0
0
0
0
0
0
0
0
0
0
0
0
0
0
0
0
0
0
0
0
0
0
0
0
0
0
0
0
0
0
0
0
0
0
0
0
0
0
0
0
0
0
0
0
0
0
0
0
0
0
0
0
0
0
0
0
0
0
0
0
0
0
0
0
0
0
0
0
0
0
0
0
0
0
0
0
0
0
0
0
0
0
0
0
0
0
0
0
0
0
0
0
0
0
0
0
0
0
0
0
0
0
0
0
0
0
0
0
0
0
0
0
0
0
0
0
0
0
0
0
0
0
0
0
0
0
0
0
0
0
0
0
0
0
0
0
0
0
0
0
0
0
0
0
0
0
0
0
0
0
0
0
0
0
0
0
0
0
0
0
0
0
0
0
0
0
0
0
0
0
0
0
0
0
0
0
0
0
0
0
0
0
0
0
0
0
0
0
0
0
0
0
0
0
0
0
0
0
0
0
0
0
0
0
0
0
0
0
0
0
0
0
0
0
0
0
0
0
0
0
0
0
0
0
0
0
0
0
0
0
0
0
0
0
0
0
0
0
0
0
0
0
0
0
0
0
0
0
0
0
0
0
0
0
0
0
0
0
0
0
0
0
0
0
0
0
0
0
0
0
0
0
0
0
0
0
0
0
0
0
0
0
0
0
0
0
0
0
0
0
0
0
0
0
0
0
0
0
0
0
0
0
0
0
0
0
0
0
0
0
0
0
0
0
0
0
0
0
0
0
0
0
0
0
0
0
0
0
0
0
0
0
0
0
0
0
0
0
0
0
0
0
0
0
0
0
0
0
0
0
0
0
0
0
0
0
0
0
0
0
0
0
0
0
0
0
0
0
0
0
0
0
0
0
0
0
0
0
0
0
0
0
0
0
0
0
0
0
0
0
0
0
0
0
0
0
0
0
0
0
0
0
0
0
0
0
0
0
0
0
0
0
0
0
0
0
0
0
0
0
0
0
0
0
0
0
0
0
0
0
0
0
0
0
0
0
0
0
0
0
0
0
0
0
0
0
0
0
0
0
0
0
0
0
0
0
0
0
0
0
0
0
0
0
0
0
0
0
0
0
0
0
0
0
0
0
0
0
0
0
0
0
0
0
0
0
0
0
0
0
0
0
0
0
0
0
0
0
0
0
0
0
0
0
0
0
0
0
0
0
0
0
0
0
0
0
0
0
0
0
0
0
0
0
0
0
0
0
0
0
0
0
0
0
0
0
0
0
0
0
0
0
0
0
0
0
0
0
0
0
0
0
0
0
0
0
0
0
0
0
0
0
0
0
0
0
0
0
0
0
0
0
0
0
0
0
0
0
0
0
0
0
0
0
0
0
0
0
0
0
0
0
0
0
0
0
0
0
0
0
0
0
0
0
0
0
0
0
0
0
0
0
0
0
0
0
0
0
0
0
0
0
0
0
0
0
0
0
0
0
0
0
0
0
0
0
0
0
0
0
0
0
0
0
0
0
0
0
0
0
0
0
0
0
0
0
0
0
0
0
0
0
0
0
0
0
0
0
0
0
0
0
0
0
0
0
0
0
0
0
0
0
0
0
0
0
0
0
0
0
0
0
0
0
0
0
0
0
0
0
0
0
0
0
0
0
0
0
0
0
0
0
0
0
0
0
0
0
0
0
0
0
0
0
0
0
0
0
0
0
0
0
0
SCALARS Color_Flag int
LOOKUP_TABLE default
2
4
5
6
7
8
9
10
12
21
23
27
38
46
48
53
54
55
56
57
58
59
60
61
62
63
64
65
66
67
68
69
70
71
72
73
74
75
76
77
79
82
83
85
87
89
90
91
92
93
94
95
96
97
98
99
100
101
102
103
104
105
106
107
108
109
110
111
112
113
114
115
116
117
118
119
121
122
123
124
125
126
127
128
129
130
131
132
133
134
135
136
137
138
139
140
141
142
143
144
145
146
147
148
149
150
151
152
153
154
155
156
157
158
161
162
163
164
165
166
167
168
169
170
171
172
173
174
175
176
177
178
179
180
181
182
183
184
185
186
187
188
189
190
191
192
193
194
195
196
197
198
202
203
204
205
206
207
208
209
210
211
212
213
214
215
216
217
218
219
220
221
222
223
224
225
226
227
228
229
230
231
232
233
234
235
236
237
238
239
241
242
243
244
245
246
247
248
249
250
251
252
253
254
255
256
257
258
259
260
261
262
263
264
265
266
267
268
269
270
271
272
273
274
275
276
277
278
281
282
283
284
285
286
287
288
289
290
291
292
293
294
295
296
297
298
299
300
301
302
303
304
305
306
307
308
309
310
311
312
313
314
315
316
317
318
321
322
323
324
325
326
327
328
329
330
331
332
333
334
335
336
337
338
339
340
341
342
343
344
345
346
347
348
349
350
351
352
353
354
355
356
357
358
362
363
364
365
366
367
368
369
370
371
372
373
374
375
376
377
378
379
380
381
382
383
384
385
386
387
388
389
390
391
392
393
394
395
396
397
398
399
402
403
404
405
406
407
408
409
410
411
412
413
414
415
416
417
418
419
420
421
422
423
424
425
426
427
428
429
430
431
432
433
434
435
436
437
438
439
442
443
444
445
446
447
448
449
450
451
452
453
454
455
456
457
458
459
460
461
462
463
464
465
466
467
468
469
470
471
472
473
474
475
476
477
478
479
482
483
484
485
486
487
488
489
490
491
492
493
494
495
496
497
498
499
500
501
502
503
504
505
506
507
508
509
510
511
512
513
514
515
516
517
518
519
522
523
524
525
526
527
528
529
530
531
532
533
534
535
536
537
538
539
540
541
542
543
544
545
546
547
548
549
550
551
552
553
554
555
556
557
558
559
562
563
564
565
566
567
568
569
570
571
572
573
574
575
576
577
578
579
580
581
582
583
584
585
586
587
588
589
590
591
592
593
594
595
596
597
598
599
602
603
604
605
606
607
608
609
610
611
612
613
614
615
616
617
618
619
620
621
622
623
624
625
626
627
628
629
630
631
632
633
634
635
636
637
638
639
641
642
643
644
645
646
647
648
649
650
651
652
653
654
655
656
657
658
659
660
661
662
663
664
665
666
667
668
669
670
671
672
673
674
675
676
677
678
681
682
683
684
685
686
687
688
689
690
691
692
693
694
695
696
697
698
699
700
701
702
703
704
705
706
707
708
709
710
711
712
713
714
715
716
717
718
721
722
723
724
725
726
727
728
729
730
731
732
733
734
735
736
737
738
739
740
741
742
743
744
745
746
747
748
749
750
751
752
753
754
755
756
757
758
761
762
763
764
765
766
767
768
769
770
771
772
773
774
775
776
777
778
779
780
781
782
783
784
785
786
787
788
789
790
791
792
793
794
795
796
797
798
802
803
804
805
806
807
808
809
810
811
812
813
814
815
816
817
818
819
820
821
822
823
824
825
826
827
828
829
830
831
832
833
834
835
836
837
838
839
842
843
844
845
846
847
848
849
850
851
852
853
854
855
856
857
858
859
860
861
862
863
864
865
866
867
868
869
870
871
872
873
874
875
876
877
878
882
883
884
885
886
887
888
889
890
891
892
893
894
895
896
897
898
899
900
901
902
903
904
905
906
907
908
909
910
911
912
913
914
915
916
917
918
919
921
922
923
924
925
926
927
928
929
930
931
932
933
934
935
936
937
938
939
940
941
942
943
944
945
946
947
948
949
950
951
952
953
954
955
956
957
958
961
962
963
964
965
966
967
968
969
970
971
972
973
974
975
976
977
978
979
980
981
982
983
984
985
986
987
988
989
990
991
992
993
994
995
996
997
998
1001
1002
1003
1004
1005
1006
1007
1008
1009
1010
1011
1012
1013
1014
1015
1016
1017
1018
1019
1020
1021
1022
1023
1024
1025
1026
1027
1028
1029
1030
1031
1032
1033
1034
1035
1036
1037
1038
1041
1042
1043
1044
1045
1046
1047
1048
1049
1050
1051
1052
1053
1054
1055
1056
1057
1058
1059
1060
1061
1062
1063
1064
1065
1066
1067
1068
1069
1070
1071
1072
1073
1074
1075
1076
1077
1078
1081
1082
1083
1084
1085
1086
1087
1088
1089
1090
1091
1092
1093
1094
1095
1096
1097
1098
1099
1100
1101
1102
1103
1104
1105
1106
1107
1108
1109
1110
1111
1112
1113
1114
1115
1116
1117
1118
1121
1122
1123
1124
1125
1126
1127
1128
1129
1130
1131
1132
1133
1134
1135
1136
1137
1138
1139
1140
1141
1142
1143
1144
1145
1146
1147
1148
1149
1150
1151
1152
1153
1154
1155
1156
1157
1158
1161
1162
1163
1164
1165
1166
1167
1168
1169
1170
1171
1172
1173
1174
1175
1176
1177
1178
1179
1180
1181
1182
1183
1184
1185
1186
1187
1188
1189
1190
1191
1192
1193
1194
1195
1196
1197
1198
1202
1203
1204
1205
1206
1207
1208
1209
1210
1211
1212
1213
1214
1215
1216
1217
1218
1219
1220
1221
1222
1223
1224
1225
1226
1227
1228
1229
1230
1231
1232
1233
1234
1235
1236
1237
1238
1239
1242
1243
1244
1245
1246
1247
1248
1249
1250
1251
1252
1253
1254
1255
1256
1257
1258
1259
1260
1261
1262
1263
1264
1265
1266
1267
1268
1269
1270
1271
1272
1273
1274
1275
1276
1277
1278
1279
1281
1282
1283
1284
1285
1286
1287
1288
1289
1290
1291
1292
1293
1294
1295
1296
1297
1298
1299
1300
1301
1302
1303
1304
1305
1306
1307
1308
1309
1310
1311
1312
1313
1314
1315
1316
1317
1318
1322
1323
1324
1325
1326
1327
1328
1329
1330
1331
1332
1333
1334
1335
1336
1337
1338
1339
1340
1341
1342
1343
1344
1345
1346
1347
1348
1349
1350
1351
1352
1353
1354
1355
1356
1357
1358
1359
1362
1363
1364
1365
1366
1367
1368
1369
1370
1371
1372
1373
1374
1375
1376
1377
1378
1379
1380
1381
1382
1383
1384
1385
1386
1387
1388
1389
1390
1391
1392
1393
1394
1395
1396
1397
1398
1399
1401
1402
1403
1404
1405
1406
1407
1408
1409
1410
1411
1412
1413
1414
1415
1416
1417
1418
1419
1420
1421
1422
1423
1424
1425
1426
1427
1428
1429
1430
1431
1432
1433
1434
1435
1436
1437
1438
1442
1443
1444
1445
1446
1447
1448
1449
1450
1451
1452
1453
1454
1455
1456
1457
1458
1459
1460
1461
1462
1463
1464
1465
1466
1467
1468
1469
1470
1471
1472
1473
1474
1475
1476
1477
1478
1479
1482
1483
1484
1485
1486
1487
1488
1489
1490
1491
1492
1493
1494
1495
1496
1497
1498
1499
1500
1501
1502
1503
1504
1505
1506
1507
1508
1509
1510
1511
1512
1513
1514
1515
1516
1517
1518
1519
1522
1523
1524
1525
1526
1527
1528
1529
1530
1531
1532
1533
1534
1535
1536
1537
1538
1539
1540
1541
1542
1543
1544
1545
1546
1547
1548
1549
1550
1551
1552
1553
1554
1555
1556
1557
1558
1559
1562
1563
1564
1565
1566
1567
1568
1569
1570
1571
1572
1573
1574
1575
1576
1577
1578
1579
1580
1582
1584
1586
1588
1590
1591
1592
1594
1595
1596
1597
1598
1599
1416
1016
1083
888
1263
55
937
1261
385
183
695
552
1252
917
1156
1490
1224
286
653
619
265
142
1322
418
295
1246
489
1556
111
758
878
1116
1487
944
746
1301
201
494
784
780
951
283
1497
1091
850
542
69
1503
1466
195
599
971
496
1106
137
533
659
505
118
965
188
927
1410
886
1424
1509
486
693
1296
231
1567
625
1097
379
307
1219
1456
389
1250
1433
514
167
176
1140
1419
639
621
445
692
906
1286
390
753
638
792
1537
896
936
1154
1175
796
1024
1531
1002
1265
1439
1056
609
1338
1375
433
305
1491
603
342
1087
1404
1270
1036
1298
1525
550
727
1378
457
544
674
1051
711
584
363
1070
1256
1436
212
575
531
1066
150
1182
216
1269
38
969
1393
507
1211
765
647
1217
713
449
1282
654
845
106
1073
1110
767
501
1133
515
339
642
952
108
454
690
1462
607
688
509
899
498
1157
558
1364
467
1216
223
855
712
1105
1085
311
346
215
229
559
1038
274
887
585
131
789
366
1103
1228
1026
175
1415
851
724
633
1323
1011
1293
1374
155
186
940
1365
383
284
1422
1518
2
667
204
832
1575
963
434
327
737
1184
992
1185
697
1455
334
3
1552
856
1167
91
93
149
246
1021
408
750
13
543
678
264
1512
1064
423
317
977
1187
329
556
1126
1297
1535
1598
437
616
1507
10
1391
314
873
239
1101
424
554
1584
1350
749
1192
1372
428
365
1367
1181
875
694
1506
1255
464
1012
948
1403
1317
1534
978
974
1463
299
227
1155
1330
1569
270
1141
1090
1467
961
1017
1578
351
179
1214
785
1368
643
285
1183
341
154
63
1533
1197
1366
304
764
1104
1207
282
772
1526
793
1527
1546
1230
1413
415
698
1149
113
374
1166
629
645
166
1395
897
1555
1129
869
1425
1076
1316
1495
934
104
1352
838
957
287
1528
316
1577
187
47
168
1253
255
130
1468
910
252
741
1303
773
1020
205
1580
1373
393
928
905
1173
443
469
438
1178
1257
256
925
373
943
1078
235
1447
914
392
932
830
783
1370
818
1179
1356
908
538
754
250
774
699
1493
1188
1482
371
127
1114
1519
276
592
343
209
827
681
715
1362
982
1428
233
1148
479
871
499
278
478
949
803
244
1096
1174
101
266
848
1233
953
984
1499
182
1014
1385
900
448
483
1130
993
1294
1532
862
802
534
1300
1308
745
769
1061
547
1206
884
853
430
689
335
1550
567
196
463
109
224
185
819
313
260
516
207
1053
115
1489
241
61
1190
797
68
1191
1195
622
675
1084
1025
1548
885
842
1121
810
762
725
545
1388
1568
686
956
831
1590
65
672
332
907
1264
1347
1432
614
808
44
1326
615
1398
1067
411
355
597
1307
548
1208
1194
92
1345
236
217
1465
1152
1032
930
1541
1266
1311
730
1394
1113
1068
425
517
107
868
1271
1485
522
432
1557
388
700
606
459
861
986
1510
1431
503
582
673
1234
4
59
67
1594
563
382
859
1203
1275
650
124
202
1172
924
1351
816
794
1242
402
742
747
177
48
1588
1469
208
271
958
1202
826
1176
1354
807
577
596
178
804
1162
1177
612
610
321
1511
983
844
119
998
872
865
740
1471
933
637
56
579
269
370
414
576
493
728
743
915
1196
1450
903
846
1134
1004
918
1107
763
1312
1429
1369
100
193
297
83
1283
624
1077
574
682
526
380
352
1237
262
470
833
189
1449
96
1327
1278
135
732
1318
1063
1310
472
518
1574
843
1003
562
412
203
551
1387
565
1386
1010
356
557
537
771
702
805
144
778
309
121
1319
398
1383
684
513
1593
1414
1062
1095
1336
325
1363
1222
593
1389
409
22
219
473
587
837
1344
1570
979
1540
1220
735
707
1333
410
939
1435
510
268
1453
511
857
1305
71
330
658
152
1445
1405
465
945
1339
378
528
1522
180
1262
1337
435
911
892
1142
1170
1046
275
962
966
417
344
1019
170
453
347
323
199
1545
277
1508
1109
662
226
775
1486
1563
1058
1377
11
1477
657
997
206
9
864
322
1251
350
1564
125
588
369
656
232
1346
1384
1289
1538
345
210
148
1355
975
174
901
245
1483
555
1205
524
324
1108
663
1434
1371
811
1544
1553
225
211
729
806
273
541
1041
895
1054
194
73
1034
1037
39
110
444
1137
620
145
482
391
439
1516
1226
972
396
326
1277
954
546
779
1565
987
590
586
328
103
635
608
315
790
611
1382
1381
291
436
716
368
756
1589
530
222
1325
847
161
1343
752
751
989
348
57
988
1052
1131
114
156
300
290
788
296
1529
1426
766
605
1138
617
293
668
683
302
1075
95
442
1407
105
738
123
1579
1290
1086
12
1474
946
947
397
1502
1581
539
1236
512
1494
913
1209
456
5
129
553
651
1536
447
669
431
1223
564
318
1353
484
416
882
1112
671
420
461
1287
809
1572
1470
98
709
1128
426
817
973
1292
1001
1571
163
761
1150
1168
1125
889
583
527
985
77
301
870
46
455
849
1238
1099
696
1163
613
134
147
468
1288
1029
722
474
824
941
1500
1047
298
1592
829
1551
1442
931
169
171
1291
60
1244
14
1399
581
970
1153
714
1117
1048
508
504
748
1143
1042
357
306
891
636
218
462
34
676
1329
1189
815
138
594
1542
950
1094
572
677
1451
1582
1268
230
117
427
1396
221
898
422
604
1444
1566
376
701
1484
1119
394
916
310
1411
1245
1464
303
717
1587
1199
781
1043
523
1204
877
292
6
466
536
102
1035
128
1515
568
259
1459
1392
791
968
1180
1231
500
89
242
1127
703
1524
1313
1573
495
519
8
627
655
1595
289
184
1044
623
1412
876
1100
1258
1457
94
902
823
1438
1596
1273
632
1225
143
491
446
1135
731
866
1030
1492
1306
1088
935
1033
1328
312
116
1488
1186
786
1169
1267
573
1437
1122
419
1007
926
1247
1082
942
1304
883
451
1299
1146
860
1586
578
929
407
1136
1583
664
1554
813
739
377
1027
1335
1018
770
165
122
994
1248
228
1060
214
1022
452
1279
540
798
1009
708
191
36
1446
1334
139
1314
1147
192
272
1443
254
82
1539
492
237
190
644
1420
258
1111
955
333
1118
777
1324
1285
247
1559
874
471
1123
867
1243
1055
734
602
1045
1514
1460
1340
904
281
1260
776
726
646
591
1501
238
30
1072
589
267
1144
172
634
1005
336
1274
1478
243
349
893
173
45
744
1379
506
821
153
1145
248
97
938
909
1132
1102
1331
721
353
1151
1089
384
1472
828
852
1397
1276
1475
234
529
1315
1476
1171
1430
1498
1408
476
490
1549
358
99
580
1259
820
706
1406
354
1198
1418
1591
140
18
157
1232
631
213
981
964
1558
1023
340
460
733
477
1028
858
1302
1074
1284
1496
249
1008
666
1517
1409
1057
450
566
294
395
1523
995
1098
1358
112
570
1006
1504
458
626
1543
571
863
923
132
1213
1458
485
1093
660
146
535
403
1272
1357
736
381
141
652
723
1227
387
757
367
253
133
362
404
1059
649
825
912
1530
406
331
197
685
894
812
386
1342
364
1165
628
1332
814
1417
836
782
976
1448
1124
1423
1031
487
1547
967
429
718
337
1139
1049
1427
768
822
1454
261
1390
1092
991
1215
1065
665
1249
835
7
198
1115
1218
405
72
710
922
162
181
1015
1597
421
257
890
1421
1452
569
1309
996
661
1380
1576
1473
618
151
1229
787
1235
1254
854
1164
136
158
1505
755
413
1013
990
1210
251
1069
687
549
1585
1071
1599
1341
372
502
834
497
705
475
525
1402
670
630
1562
488
1295
164
1349
308
1050
1376
375
338
980
1212
90
263
648
1461
704
532
1158
598
288
595
795
691
1513
1348
1221
1193
220
