# vtk DataFile Version 3.0
Motion
ASCII
DATASET UNSTRUCTURED_GRID
POINTS 6400 float
18.5133 16.7031 -1.74954
18.6592 -16.459 -2.5648
18.823 -15.6773 -2.76039
18.5457 -14.3403 -2.84206
18.6907 -13.8893 -2.86189
19.3509 -12.4075 -2.74191
19.5139 -11.9256 -2.67856
19.1211 -10.8207 -2.85508
18.7807 -10.1885 -3.02041
18.2312 -8.55651 -3.05667
18.0826 -7.67601 -2.89847
18.8236 -6.46512 -3.0125
18.9374 -5.76736 -2.86985
18.7016 -4.73346 -2.01871
18.8239 -4.23775 -1.44519
19.6434 -3.20475 -0.872884
19.9594 -2.84429 -0.224616
-19.2954 -2.01346 1.09041
-19.2674 -1.73272 1.72598
-19.4293 -0.174614 2.8639
-19.3405 0.323933 2.87902
-19.6169 1.77481 2.1633
-19.3698 2.1114 2.04824
-19.127 3.10408 0.915455
-18.993 3.56533 0.257419
-18.578 4.87566 -0.417326
-18.3115 5.42861 -0.00352628
-18.5895 6.81699 -0.372067
-18.6937 7.2598 -0.214309
-19.3967 8.49859 0.233946
-19.3571 8.84037 0.928085
-19.4619 9.69421 1.89175
-19.1913 10.0424 2.22981
-19.4171 12.1451 2.47361
-19.3321 13.3047 1.73216
-19.5021 13.9966 0.61509
-19.8603 14.2754 0.424831
19.6101 14.9169 -0.5187
19.166 15.2576 -0.559607
18.5632 16.0568 -1.07757
19.2867 17.0707 -2.40813
19.838 16.9576 -2.57182
-19.2043 -16.6974 -2.68144
-18.8893 -17.078 -2.67378
-17.8996 -16.9075 -2.31779
-17.2825 17.3199 -2.29516
-16.5896 -16.8481 -1.59852
-16.0855 -17.0031 -1.38306
-15.6688 -17.0437 -1.07959
-15.3261 17.2287 -1.18393
-14.4686 -17.2863 -0.236589
-13.7797 16.7326 -0.39973
-13.368 16.9813 0.255912
-12.9561 17.0766 0.617154
-12.7916 -16.894 1.26058
-12.3186 -16.905 1.40541
-11.6495 -16.3904 1.75272
-11.1504 -16.9563 1.60121
-10.5907 -17.0314 1.62575
-10.1207 17.0562 1.47549
-9.62517 17.2929 1.57203
-8.83825 17.0362 1.51769
-8.38294 17.3201 1.54648
-7.95152 16.9528 1.47237
-7.50682 16.9797 1.45701
-6.91976 16.4728 1.39812
-6.53287 16.9362 1.45396
-5.54896 16.9319 1.50981
-4.88687 -17.182 1.4195
-4.43329 17.207 1.54107
-4.0061 -17.1552 1.50572
-3.56794 17.3033 1.62248
-3.16369 -17.047 1.58237
-2.70068 -17.2665 1.73357
-2.33075 -16.9961 1.71535
-1.84056 -17.1585 1.87844
-1.28168 -16.5865 1.80145
-0.614163 17.2959 2.13322
-0.0161943 -17.239 2.20984
0.612677 16.6073 2.1768
1.23504 16.5082 2.10718
1.77577 16.1689 1.84287
2.63679 17.0762 1.89431
3.02989 16.9007 1.64393
3.3987 17.1524 1.53917
3.7201 16.9473 1.17851
4.35536 17.2285 0.702002
4.54083 16.7322 -0.0528575
5.02023 16.9064 -0.745306
5.54494 16.826 -1.71247
6.00778 -17.1425 -1.91865
6.60823 17.229 -2.60381
7.13989 17.2053 -2.91406
7.68823 16.8899 -2.99456
8.49197 17.2706 -3.09014
9.27882 17.126 -2.72563
9.79919 -17.1122 -2.52497
10.0471 17.1535 -1.86493
10.2561 17.2088 -1.32345
10.1836 16.77 -0.590949
10.4811 -17.1624 -0.13104
10.5169 -17.103 0.363632
10.6385 -16.8692 0.794953
10.6786 -17.2044 1.61386
11.2946 -16.5049 2.38026
11.6029 -16.7203 2.76995
12.4058 -16.5671 3.18665
13.1267 -17.0628 3.35114
13.5279 -16.7481 3.29408
14.8284 -16.788 2.74579
15.1829 -16.5754 2.37359
15.6069 -16.7899 1.92546
15.8297 -16.582 1.50267
16.1282 -16.7722 1.04936
16.3932 -16.6044 0.211031
17.0767 -16.9818 -0.904051
17.3029 -16.7957 -1.42494
17.8317 17.2163 -1.5324
19.4072 -16.8235 -2.65667
-19.4114 -15.702 -2.57214
-18.9293 -16.3149 -2.55347
-18.2288 -16.0173 -2.16528
-17.8646 -16.0291 -1.94943
-17.4176 -15.6267 -1.35242
-17.0883 -16.0338 -1.36205
-16.7294 -15.9718 -0.975453
-15.6502 -16.7451 -0.729308
-15.1293 -16.6301 -0.0893548
-14.6743 -16.8511 0.0942865
-14.5602 -16.5182 0.516921
-13.6848 -17.2362 0.474191
-13.5576 -16.6078 1.1181
-13.1288 -16.5272 1.36708
-12.7498 -15.876 1.77094
-11.6186 -15.883 1.88971
-11.2372 -15.6448 1.90471
-10.0987 -16.2839 1.73033
-9.58862 -16.001 1.6456
-9.06427 -16.2272 1.57072
-8.603 -15.9866 1.41332
-8.12204 -16.2069 1.36269
-7.70192 -16.0082 1.19441
-7.19623 -16.3284 1.21702
-6.81008 -16.1564 1.05473
-5.9473 -16.5666 1.1676
-5.39812 -16.3413 1.00733
-4.92146 -16.4114 1.05825
-4.53209 -16.0676 0.857168
-3.99916 -16.1154 0.948481
-3.6681 -15.8022 0.753983
-2.80599 -15.8423 0.987974
-2.34734 -15.4531 0.825324
-1.75113 -15.7321 1.24706
-1.26254 -15.6627 1.37745
-1.1216 -16.0901 1.65606
-0.662281 -16.1508 1.81673
-0.047335 -16.7329 2.12938
0.792969 -16.2425 2.18457
1.28625 16.9751 2.18316
1.76313 -17.038 2.21858
2.19052 -16.8843 2.18228
2.67135 -16.2433 2.17154
3.53997 -17.0403 1.65504
4.19389 -16.6602 1.34332
4.49758 -16.9119 0.87791
4.96781 -16.7779 0.347879
5.43659 -17.1006 -0.896085
5.73924 -16.7844 -1.20807
6.00666 -16.7732 -1.66769
6.58379 -16.2373 -2.18724
7.51838 -17.2107 -3.00455
8.05647 -16.6539 -3.14051
8.48724 -16.9038 -3.16519
8.95391 -16.6082 -3.14328
9.69109 -16.6563 -2.77443
10.3645 -16.3135 -2.25912
10.5615 -16.7114 -1.37519
10.7604 -16.322 -1.19725
10.8538 -16.2153 -0.649654
11.0565 -15.6347 -0.061306
10.7929 -16.4414 0.882064
11.0858 -15.9 1.59391
11.28 -15.9893 2.12495
12.2325 -15.6746 2.9978
12.7345 -15.8272 3.19678
13.1776 -15.4691 3.23505
13.8194 -15.9861 3.18248
14.6308 -15.8324 2.78262
15.0274 -15.8833 2.41627
15.506 -15.4452 1.69409
15.6866 -15.8642 1.4456
16.1184 -15.8054 0.237585
16.3192 -16.1769 -0.0427901
16.7811 -15.9535 -1.2759
17.3437 -16.39 -1.73549
17.7602 -16.3583 -2.1469
19.4177 -15.6363 -2.77545
-19.8746 -16.0416 -2.73321
-19.3517 -15.2169 -2.45783
-18.4282 -15.1829 -1.91262
-17.7191 -14.7685 -1.03025
-17.3134 -14.9447 -0.723621
-16.9587 -14.963 -0.350429
-16.6919 -15.4097 -0.433884
-16.3241 -15.5429 -0.16095
-15.631 -15.9466 0.140511
-15.2966 -15.4276 0.866172
-14.909 -15.7371 0.922683
-14.2969 -15.4914 1.41533
-13.8136 -16.167 1.26511
-13.4011 -15.4223 1.77593
-12.8973 -15.383 1.9063
-11.7131 -14.8463 1.98866
-11.2731 -15.1758 1.92904
-10.8609 -14.9704 1.83445
-10.0641 -15.2038 1.64235
-9.70793 -14.5076 1.30761
-9.26017 -14.8326 1.23049
-8.57874 -14.6559 0.804292
-8.20441 -14.9535 0.809693
-7.46825 -14.7262 0.310957
-6.87507 -15.688 0.798952
-6.49771 -15.456 0.535725
-5.82906 -15.6273 0.534874
-5.306 -15.186 0.121839
-4.68522 -15.6731 0.53114
-3.93667 -14.9174 -0.0693543
-3.65871 -15.1733 0.212829
-3.20342 -14.9972 0.168382
-2.49018 -15.0496 0.449368
-1.80939 -14.5576 0.356698
-0.874135 -14.8252 1.04696
-0.364429 -14.6585 1.19477
-0.346848 -15.8113 1.77851
0.443699 -15.5213 1.92467
0.896104 -15.6598 2.07709
1.60398 -15.1998 2.13209
1.88061 -15.6381 2.22639
2.39879 -15.4527 2.22828
2.77794 -15.7906 2.19138
3.30986 -15.7331 2.07398
4.04291 -16.2145 1.63976
4.40413 -15.8908 1.49829
5.18532 -16.2156 0.472256
5.4152 -16.0213 0.23844
5.78335 -16.4175 -0.942506
6.02235 -16.0177 -1.08185
6.70462 -15.7305 -2.06991
6.95447 -15.4153 -2.2411
7.83799 -15.9336 -3.05567
8.20264 -15.582 -3.1349
8.79774 -15.8063 -3.19402
10.051 -15.4099 -2.92908
10.6923 -15.531 -2.2852
10.9957 -15.2851 -1.82884
11.0267 -15.574 -1.39645
11.2357 -15.1174 -0.60544
11.1928 -15.2148 -0.0550892
11.2275 -15.0154 0.43098
11.1483 -15.415 1.27711
11.7757 -14.9254 2.49202
12.1954 -14.9478 2.87336
12.4431 -14.4724 2.98101
13.2671 -14.6808 3.20394
13.8438 -14.7245 3.11058
14.5433 -15.3486 2.82137
15.3029 -14.5901 1.99716
15.6174 -15.0652 1.35581
15.915 -15.0186 0.421654
16.0758 -15.3851 0.0433319
16.2462 -15.1074 -0.656165
16.659 -15.4778 -1.36485
16.8468 -15.2277 -1.7528
17.8126 -15.6161 -2.43062
19.0501 -14.589 -2.81637
19.9004 -14.2113 -2.64636
-19.7385 -14.5571 -2.52492
-18.5475 -14.203 -1.61388
-18.1611 -14.2543 -1.23312
-17.6632 -13.8368 -0.430475
-16.7471 -14.4132 0.269239
-16.3066 -14.3558 0.735986
-15.9726 -14.7293 0.802223
-15.5714 -14.657 1.13946
-15.2572 -14.9827 1.16986
-14.7387 -14.4103 1.69441
-14.2621 -14.4183 1.8615
-13.5035 -14.125 2.07601
-12.9547 -14.367 2.05367
-12.4402 -14.01 2.06822
-11.561 -13.9378 1.86902
-11.0609 -13.6134 1.66438
-10.603 -13.8676 1.51846
-10.1773 -13.6632 1.22365
-9.53303 -14.0137 0.978364
-8.75908 -13.9111 0.456442
-8.44851 -14.2597 0.488217
-7.88644 -13.9304 -0.0649257
-7.24029 -14.3542 -0.0716289
-6.81203 -14.423 -0.189982
-6.45705 -14.9896 0.156665
-5.43655 -14.4525 -0.508386
-5.12576 -14.8072 -0.227459
-4.47249 -14.3961 -0.592058
-3.91928 -14.3352 -0.576457
-3.4264 -13.7734 -0.917264
-2.788 -14.2142 -0.355581
-1.97579 -13.9254 -0.21953
-1.65085 -14.1348 0.114296
-0.589652 -13.7395 0.514034
-0.12724 -14.3291 1.14086
0.352635 -14.29 1.39272
0.577836 -14.6652 1.65916
1.49933 -13.9506 1.80962
1.93888 -14.2799 2.03224
2.31062 -13.8904 2.0678
3.09723 -14.3496 2.1885
3.65641 -14.3726 2.1358
4.02098 -14.8116 1.99574
4.56276 -14.8157 1.74076
4.78891 -15.1927 1.49398
5.22447 -15.0042 1.17693
5.60436 -15.5145 0.330946
5.8494 -15.3784 -0.0424629
6.05053 -15.6258 -0.759712
6.7076 -14.8131 -1.48479
6.94656 -14.9024 -1.96054
7.54618 -14.6821 -2.57128
8.09267 -15.2017 -3.04453
8.50117 -14.8794 -3.15649
9.86071 -14.9262 -3.138
10.2348 -14.5838 -3.01622
10.9387 -14.6435 -2.36222
11.3822 -14.1226 -1.86636
11.4431 -14.3049 -1.38342
11.5509 -14.0496 -0.456931
11.3601 -14.5697 0.31559
11.3968 -14.2588 1.04602
11.694 -14.0701 2.15468
11.9342 -13.6137 2.36992
12.2136 -13.7782 2.71769
13.5688 -13.8744 3.11609
14.0719 -14.4043 3.04013
14.7559 -14.1095 2.66435
15.1659 -14.1601 2.215
15.5789 -13.8369 1.47687
15.8023 -14.2092 0.680973
15.9564 -13.8888 -0.122088
16.0482 -14.314 -0.384054
16.3764 -14.2569 -1.2954
16.757 -14.7534 -1.79649
17.0758 -14.5183 -2.16308
19.804 -13.3596 -2.59793
-19.8887 -13.7885 -2.5024
-19.1995 -13.5865 -2.01255
-18.7858 -13.7231 -1.67631
-18.1396 -13.0843 -0.709529
-17.5918 -13.4442 -0.151434
-17.3322 -13.2329 0.24362
-16.4601 -13.553 0.981003
-16.1924 -13.221 1.29935
-15.7935 -13.4396 1.4952
-15.4592 -13.1329 1.73753
-15.0449 -13.4119 1.85102
-13.8725 -13.1396 2.15598
-13.4294 -13.3576 2.15693
-13.0195 -13.007 2.13893
-12.5781 -13.1774 2.08471
-11.4497 -12.7528 1.65587
-11.0516 -13.1058 1.53758
-10.1654 -12.6229 0.813851
-9.96603 -13.0399 0.832345
-9.52895 -12.9737 0.463202
-8.8595 -13.1714 0.0727739
-8.13185 -12.9211 -0.577517
-7.89263 -13.2709 -0.513809
-7.29744 -13.3706 -0.757844
-6.66476 -14.0281 -0.554673
-6.02367 -13.6965 -0.992031
-5.42832 -13.7506 -1.06317
-5.11386 -13.3665 -1.35796
-4.27476 -13.3344 -1.35277
-3.78756 -13.0976 -1.43596
-3.44371 -13.3605 -1.205
[...]
CELL_DATA 2961
SCALARS APICAL_flag int
LOOKUP_TABLE default
0
0
0
0
0
0
0
0
0
0
0
0
0
0
0
0
0
0
0
0
0
0
0
0
0
0
0
0
0
0
0
0
0
0
0
0
0
0
0
0
0
0
0
0
0
0
0
0
0
0
0
0
0
0
0
0
0
0
0
0
0
0
0
0
0
0
0
0
0
0
0
0
0
0
0
0
0
0
0
0
0
0
0
0
0
0
0
0
0
0
0
0
0
0
0
0
0
0
0
0
0
0
0
0
0
0
0
0
0
0
0
0
0
0
0
0
0
0
0
0
0
0
0
0
0
0
0
0
0
0
0
0
0
0
0
0
0
0
0
0
0
0
0
0
0
0
0
0
0
0
0
0
0
0
0
0
0
0
0
0
0
0
0
0
0
0
0
0
0
0
0
0
0
0
0
0
0
0
0
0
0
0
0
0
0
0
0
0
0
0
0
0
0
0
0
0
0
0
0
0
0
0
0
0
0
0
0
0
0
0
0
0
0
0
0
0
0
0
0
0
0
0
0
0
0
0
0
0
0
0
0
0
0
0
0
0
0
0
0
0
0
0
0
0
0
0
0
0
0
0
0
0
0
0
0
0
0
0
0
0
0
0
0
0
0
0
0
0
0
0
0
0
0
0
0
0
0
0
0
0
0
0
0
0
0
0
0
0
0
0
0
0
0
0
0
0
0
0
0
0
0
0
0
0
0
0
0
0
0
0
0
0
0
0
0
0
0
0
0
0
0
0
0
0
0
0
0
0
0
0
0
0
0
0
0
0
0
0
0
0
0
0
0
0
0
0
0
0
0
0
0
0
0
0
0
0
0
0
0
0
0
0
0
0
0
0
0
0
0
0
0
0
0
0
0
0
0
0
0
0
0
0
0
0
0
0
0
0
0
0
0
0
0
0
0
0
0
0
0
0
0
0
0
0
0
0
0
0
0
0
0
0
0
0
0
0
0
0
0
0
0
0
0
0
0
0
0
0
0
0
0
0
0
0
0
0
0
0
0
0
0
0
0
0
0
0
0
0
0
0
0
0
0
0
0
0
0
0
0
0
0
0
0
0
0
0
0
0
0
0
0
0
0
0
0
0
0
0
0
0
0
0
0
0
0
0
0
0
0
0
0
0
0
0
0
0
0
0
0
0
0
0
0
0
0
0
0
0
0
0
0
0
0
0
0
0
0
0
0
0
0
0
0
0
0
0
0
0
0
0
0
0
0
0
0
0
0
0
0
0
0
0
0
0
0
0
0
0
0
0
0
0
0
0
0
0
0
0
0
0
0
0
0
0
0
0
0
0
0
0
0
0
0
0
0
0
0
0
0
0
0
0
0
0
0
0
0
0
0
0
0
0
0
0
0
0
0
0
0
0
0
0
0
0
0
0
0
0
0
0
0
0
0
0
0
0
0
0
0
0
0
0
0
0
0
0
0
0
0
0
0
0
0
0
0
0
0
0
0
0
0
0
0
0
0
0
0
0
0
0
0
0
0
0
0
0
0
0
0
0
0
0
0
0
0
0
0
0
0
0
0
0
0
0
0
0
0
0
0
0
0
0
0
0
0
0
0
0
0
0
0
0
0
0
0
0
0
0
0
0
0
0
0
0
0
0
0
0
0
0
0
0
0
0
0
0
0
0
0
0
0
0
0
0
0
0
0
0
0
0
0
0
0
0
0
0
0
0
0
0
0
0
0
0
0
0
0
0
0
0
0
0
0
0
0
0
0
0
0
0
0
0
0
0
0
0
0
0
0
0
0
0
0
0
0
0
0
0
0
0
0
0
0
0
0
0
0
0
0
0
0
0
0
0
0
0
0
0
0
0
0
0
0
0
0
0
0
0
0
0
0
0
0
0
0
0
0
0
0
0
0
0
0
0
0
0
0
0
0
0
0
0
0
0
0
0
0
0
0
0
0
0
0
0
0
0
0
0
0
0
0
0
0
0
0
0
0
0
0
0
0
0
0
0
0
0
0
0
0
0
0
0
0
0
0
0
0
0
0
0
0
0
0
0
0
0
0
0
0
0
0
0
0
0
0
0
0
0
0
0
0
0
0
0
0
0
0
0
0
0
0
0
0
0
0
0
0
0
0
0
0
0
0
0
0
0
0
0
0
0
0
0
0
0
0
0
0
0
0
0
0
0
0
0
0
0
0
0
0
0
0
0
0
0
0
0
0
0
0
0
0
0
0
0
0
0
0
0
0
0
0
0
0
0
0
0
0
0
0
0
0
0
0
0
0
0
0
0
0
0
0
0
0
0
0
0
0
0
0
0
0
0
0
0
0
0
0
0
0
0
0
0
0
0
0
0
0
0
0
0
0
0
0
0
0
0
0
0
0
0
0
0
0
0
0
0
0
0
0
0
0
0
0
0
0
0
0
0
0
0
0
0
0
0
0
0
0
0
0
0
0
0
0
0
0
0
0
0
0
0
0
0
0
0
0
0
0
0
0
0
0
0
0
0
0
0
0
0
0
0
0
0
0
0
0
0
0
0
0
0
0
0
0
0
0
0
0
0
0
0
0
0
0
0
0
0
0
0
0
0
0
0
0
0
0
0
0
0
0
0
0
0
0
0
0
0
0
0
0
0
0
0
0
0
0
0
0
0
0
0
0
0
0
0
0
0
0
0
0
0
0
0
0
0
0
0
0
0
0
0
0
0
0
0
0
0
0
0
0
0
0
0
0
0
0
0
0
0
0
0
0
0
0
0
0
0
0
0
0
0
0
0
0
0
0
0
0
0
0
0
0
0
0
0
0
0
0
0
0
0
0
0
0
0
0
0
0
0
0
0
0
0
0
0
0
0
0
0
0
0
0
0
0
0
0
0
0
0
0
0
0
0
0
0
0
0
0
0
0
0
0
0
0
0
0
0
0
0
0
0
0
0
0
0
0
0
0
0
0
0
0
0
0
0
0
0
0
0
0
0
0
0
0
0
0
0
0
0
0
0
0
0
0
0
0
0
0
0
0
0
0
0
0
0
0
0
0
0
0
0
0
0
0
0
0
0
0
0
0
0
0
0
0
0
0
0
0
0
0
0
0
0
0
0
0
0
0
0
0
0
0
0
0
0
0
0
0
0
0
0
0
0
0
0
0
0
0
0
0
0
0
0
0
0
0
0
0
0
0
0
0
0
0
0
0
0
0
0
0
0
0
0
0
0
0
0
0
0
0
0
0
0
0
0
0
0
0
0
0
0
0
0
0
0
0
0
0
0
0
0
0
0
0
0
0
0
0
0
0
0
0
0
0
0
0
0
0
0
0
0
0
0
0
0
0
0
0
0
0
0
0
0
0
0
0
0
0
0
0
0
0
0
0
0
0
0
0
0
0
0
0
0
0
0
0
0
0
0
0
0
0
0
0
0
0
0
0
0
0
0
0
0
0
0
0
0
0
0
0
0
0
0
0
0
0
0
0
0
0
0
0
0
0
0
0
0
0
0
0
0
0
0
0
0
0
0
0
0
0
0
0
0
0
0
0
0
0
0
0
0
0
0
0
0
0
0
0
0
0
0
0
0
0
0
0
0
0
0
0
0
0
0
0
0
0
0
0
0
0
0
0
0
0
0
0
0
0
0
0
0
0
0
0
0
0
0
0
0
0
0
0
0
0
0
0
0
0
0
0
0
0
0
0
0
0
0
0
0
0
0
0
0
0
0
0
0
0
0
0
0
0
0
0
0
0
0
0
0
0
0
0
0
0
0
0
0
0
0
0
0
0
0
0
0
0
0
0
0
0
0
0
0
0
0
0
0
0
0
0
0
0
0
0
0
0
0
0
0
0
0
0
0
0
0
0
0
0
0
0
0
0
0
0
0
0
0
0
0
0
0
0
0
0
0
0
0
0
0
0
0
0
0
0
0
0
0
0
0
0
0
0
0
0
0
0
0
0
0
0
0
0
0
0
0
0
0
0
0
0
0
0
0
0
0
0
0
0
0
0
0
0
0
0
0
0
0
0
0
0
0
0
0
0
0
0
0
0
0
0
0
0
0
0
0
0
0
0
0
0
0
0
0
0
0
0
0
0
0
0
0
0
0
0
0
0
0
0
0
0
0
0
0
0
0
0
0
0
0
0
0
0
0
0
0
0
0
0
0
0
0
0
0
0
0
0
0
0
0
0
0
0
0
0
0
0
0
0
0
0
0
0
0
0
0
0
0
0
0
0
0
0
0
0
0
0
0
0
0
0
0
0
0
0
0
0
0
0
0
0
0
0
0
0
0
0
0
0
0
0
0
0
0
0
0
0
0
0
0
0
0
0
0
0
0
0
0
0
0
0
0
0
0
0
0
0
0
0
0
0
0
0
0
0
0
0
0
0
0
0
0
0
0
0
0
0
0
0
0
0
0
0
0
0
0
0
0
0
0
0
0
0
0
0
0
0
0
0
0
0
0
0
0
0
0
0
0
0
0
0
0
0
0
0
0
0
0
0
0
0
0
0
0
0
0
0
0
0
0
0
0
0
0
0
0
0
0
0
0
0
0
0
0
0
0
0
0
0
0
0
0
0
0
0
0
0
0
0
0
0
0
0
0
0
0
0
0
0
0
0
0
0
0
0
0
0
0
0
0
0
0
0
0
0
0
0
0
0
0
0
0
0
0
0
0
0
0
0
0
0
0
0
0
0
0
0
0
0
0
0
0
0
0
0
0
0
0
0
0
0
0
0
0
0
0
0
0
0
0
0
0
0
0
0
0
0
0
0
0
0
0
0
0
0
0
0
0
0
0
0
0
0
0
0
0
0
0
0
0
0
0
0
0
0
0
0
0
0
0
0
0
0
0
0
0
0
0
0
0
0
0
0
0
0
0
0
0
0
0
0
0
0
0
0
0
0
0
0
0
0
0
0
0
0
0
0
0
0
0
0
0
0
0
0
0
0
0
0
0
0
0
0
0
0
0
0
0
0
0
0
0
0
0
0
0
0
0
0
0
0
0
0
0
0
0
0
0
0
0
0
0
0
0
0
0
0
0
0
0
0
0
0
0
0
0
0
0
0
0
0
0
0
0
0
0
0
0
0
0
0
0
0
0
0
0
0
0
0
0
0
0
0
0
0
0
0
0
0
0
0
0
0
0
0
0
0
0
0
0
0
0
0
0
0
0
0
0
0
0
0
0
0
0
0
0
0
0
0
0
0
0
0
0
0
0
0
0
0
0
0
0
0
0
0
0
0
0
0
0
0
0
0
0
0
0
0
0
0
0
0
0
0
0
0
0
0
0
0
0
0
0
0
0
0
0
0
0
0
0
0
0
0
0
0
0
0
0
0
0
0
0
0
0
0
0
0
0
0
0
0
0
0
0
0
0
0
0
0
0
0
0
0
0
0
0
0
0
0
0
0
0
0
0
0
0
0
0
0
0
0
0
0
0
0
0
0
0
0
0
0
0
0
0
0
0
0
0
0
0
0
0
0
0
0
0
0
0
0
0
0
0
0
0
0
0
0
0
0
0
0
0
0
0
0
0
0
0
0
0
0
0
0
0
0
0
0
0
0
0
0
0
0
0
0
0
0
0
0
0
0
0
0
0
0
0
0
0
0
0
0
0
0
0
0
0
0
0
0
0
0
0
0
0
0
0
0
0
0
0
0
0
0
0
0
0
0
0
0
0
0
0
0
0
0
0
0
0
0
0
0
0
0
0
0
0
0
0
0
0
0
0
0
0
0
0
0
0
0
0
0
0
0
0
0
0
0
0
0
0
0
0
0
0
0
0
0
0
0
0
0
0
0
0
0
0
0
0
0
0
0
0
0
0
0
0
0
0
0
0
0
0
0
0
0
0
0
0
0
0
0
0
0
0
0
0
0
0
0
0
0
0
0
0
0
0
0
0
0
0
0
0
0
0
0
0
0
0
0
0
0
0
0
0
0
0
0
0
0
0
0
0
0
0
0
0
0
0
0
0
0
0
0
0
0
0
0
0
0
0
0
0
0
0
0
0
0
0
0
0
0
0
0
0
0
0
0
0
0
0
0
0
0
0
0
0
0
0
0
0
0
0
0
0
0
0
0
0
0
0
0
0
0
0
0
0
0
0
0
0
0
0
0
0
0
0
0
0
0
0
0
0
0
0
0
0
0
0
0
0
0
0
0
0
0
0
0
0
0
0
0
0
0
0
0
0
0
0
0
0
0
0
0
0
0
0
0
0
0
0
0
0
0
0
0
0
0
0
0
0
0
0
0
0
0
0
0
0
0
0
0
0
0
0
0
0
0
0
0
0
0
0
0
0
0
0
0
0
0
0
0
0
0
0
0
0
0
0
0
0
0
0
0
0
0
0
0
0
0
0
0
0
0
0
0
0
0
0
0
0
0
0
0
0
0
0
0
0
0
0
0
0
0
0
0
0
0
0
0
0
0
0
0
0
0
0
0
0
0
0
0
0
0
0
0
0
0
0
0
0
0
0
0
0
0
0
0
0
0
0
0
0
0
0
0
0
0
0
0
0
0
0
0
0
0
0
0
0
0
0
0
0
0
0
0
0
0
0
0
0
0
0
0
0
0
0
0
0
0
0
0
0
0
0
0
0
0
0
0
0
0
0
0
0
0
0
0
0
0
0
0
0
0
0
0
0
0
0
0
0
0
0
0
0
0
0
0
0
0
0
0
0
0
0
0
0
0
0
0
0
0
0
0
0
0
0
0
0
0
0
0
0
0
0
0
0
0
0
0
0
0
0
0
0
0
0
0
0
0
0
0
0
0
SCALARS Color_Flag int
LOOKUP_TABLE default
2
4
6
7
8
9
10
11
12
13
14
17
19
23
25
26
27
28
29
35
39
50
57
58
59
60
61
62
63
64
65
66
67
68
69
70
71
72
73
74
75
76
77
82
84
85
86
87
91
93
95
96
97
98
99
100
101
102
103
104
105
106
107
108
109
110
111
112
113
114
115
116
117
118
121
122
123
124
125
126
127
128
129
130
131
132
133
134
135
136
137
138
139
140
141
142
143
144
145
146
147
148
149
150
151
152
153
154
155
156
157
158
159
161
162
163
164
165
166
167
168
169
170
171
172
173
174
175
176
177
178
179
180
181
182
183
184
185
186
187
188
189
190
191
192
193
194
195
196
197
198
199
202
203
204
205
206
207
208
209
210
211
212
213
214
215
216
217
218
219
220
221
222
223
224
225
226
227
228
229
230
231
232
233
234
235
236
237
238
239
242
243
244
245
246
247
248
249
250
251
252
253
254
255
256
257
258
259
260
261
262
263
264
265
266
267
268
269
270
271
272
273
274
275
276
277
278
279
280
282
283
284
285
286
287
288
289
290
291
292
293
294
295
296
297
298
299
300
301
302
303
304
305
306
307
308
309
310
311
312
313
314
315
316
317
318
319
320
322
323
324
325
326
327
328
329
330
331
332
333
334
335
336
337
338
339
340
341
342
343
344
345
346
347
348
349
350
351
352
353
354
355
356
357
358
359
362
363
364
365
366
367
368
369
370
371
372
373
374
375
376
377
378
379
380
381
382
383
384
385
386
387
388
389
390
391
392
393
394
395
396
397
398
399
401
402
403
404
405
406
407
408
409
410
411
412
413
414
415
416
417
418
419
420
421
422
423
424
425
426
427
428
429
430
431
432
433
434
435
436
437
438
439
441
442
443
444
445
446
447
448
449
450
451
452
453
454
455
456
457
458
459
460
461
462
463
464
465
466
467
468
469
470
471
472
473
474
475
476
477
478
479
480
482
483
484
485
486
487
488
489
490
491
492
493
494
495
496
497
498
499
500
501
502
503
504
505
506
507
508
509
510
511
512
513
514
515
516
517
518
519
522
523
524
525
526
527
528
529
530
531
532
533
534
535
536
537
538
539
540
541
542
543
544
545
546
547
548
549
550
551
552
553
554
555
556
557
558
559
560
562
563
564
565
566
567
568
569
570
571
572
573
574
575
576
577
578
579
580
581
582
583
584
585
586
587
588
589
590
591
592
593
594
595
596
597
598
599
601
602
603
604
605
606
607
608
609
610
611
612
613
614
615
616
617
618
619
620
621
622
623
624
625
626
627
628
629
630
631
632
633
634
635
636
637
638
639
642
643
644
645
646
647
648
649
650
651
652
653
654
655
656
657
658
659
660
661
662
663
664
665
666
667
668
669
670
671
672
673
674
675
676
677
678
679
682
683
684
685
686
687
688
689
690
691
692
693
694
695
696
697
698
699
700
701
702
703
704
705
706
707
708
709
710
711
712
713
714
715
716
717
718
719
720
722
723
724
725
726
727
728
729
730
731
732
733
734
735
736
737
738
739
740
741
742
743
744
745
746
747
748
749
750
751
752
753
754
755
756
757
758
759
761
762
763
764
765
766
767
768
769
770
771
772
773
774
775
776
777
778
779
780
781
782
783
784
785
786
787
788
789
790
791
792
793
794
795
796
797
798
799
802
803
804
805
806
807
808
809
810
811
812
813
814
815
816
817
818
819
820
821
822
823
824
825
826
827
828
829
830
831
832
833
834
835
836
837
838
839
840
843
844
845
846
847
848
849
850
851
852
853
854
855
856
857
858
859
860
861
862
863
864
865
866
867
868
869
870
871
872
873
874
875
876
877
878
879
882
883
884
885
886
887
888
889
890
891
892
893
894
895
896
897
898
899
900
901
902
903
904
905
906
907
908
909
910
911
912
913
914
915
916
917
918
919
920
922
923
924
925
926
927
928
929
930
931
932
933
934
935
936
937
938
939
940
941
942
943
944
945
946
947
948
949
950
951
952
953
954
955
956
957
958
959
960
963
964
965
966
967
968
969
970
971
972
973
974
975
976
977
978
979
980
981
982
983
984
985
986
987
988
989
990
991
992
993
994
995
996
997
998
999
1000
1003
1004
1005
1006
1007
1008
1009
1010
1011
1012
1013
1014
1015
1016
1017
1018
1019
1020
1021
1022
1023
1024
1025
1026
1027
1028
1029
1030
1031
1032
1033
1034
1035
1036
1037
1038
1039
1040
1042
1043
1044
1045
1046
1047
1048
1049
1050
1051
1052
1053
1054
1055
1056
1057
1058
1059
1060
1061
1062
1063
1064
1065
1066
1067
1068
1069
1070
1071
1072
1073
1074
1075
1076
1077
1078
1079
1082
1083
1084
1085
1086
1087
1088
1089
1090
1091
1092
1093
1094
1095
1096
1097
1098
1099
1100
1101
1102
1103
1104
1105
1106
1107
1108
1109
1110
1111
1112
1113
1114
1115
1116
1117
1118
1119
1122
1123
1124
1125
1126
1127
1128
1129
1130
1131
1132
1133
1134
1135
1136
1137
1138
1139
1140
1141
1142
1143
1144
1145
1146
1147
1148
1149
1150
1151
1152
1153
1154
1155
1156
1157
1158
1159
1162
1163
1164
1165
1166
1167
1168
1169
1170
1171
1172
1173
1174
1175
1176
1177
1178
1179
1180
1181
1182
1183
1184
1185
1186
1187
1188
1189
1190
1191
1192
1193
1194
1195
1196
1197
1198
1199
1202
1203
1204
1205
1206
1207
1208
1209
1210
1211
1212
1213
1214
1215
1216
1217
1218
1219
1220
1221
1222
1223
1224
1225
1226
1227
1228
1229
1230
1231
1232
1233
1234
1235
1236
1237
1238
1239
1240
1242
1243
1244
1245
1246
1247
1248
1249
1250
1251
1252
1253
1254
1255
1256
1257
1258
1259
1260
1261
1262
1263
1264
1265
1266
1267
1268
1269
1270
1271
1272
1273
1274
1275
1276
1277
1278
1282
1283
1284
1285
1286
1287
1288
1289
1290
1291
1292
1293
1294
1295
1296
1297
1298
1299
1300
1301
1302
1303
1304
1305
1306
1307
1308
1309
1310
1311
1312
1313
1314
1315
1316
1317
1318
1319
1321
1322
1323
1324
1325
1326
1327
1328
1329
1330
1331
1332
1333
1334
1335
1336
1337
1338
1339
1340
1341
1342
1343
1344
1345
1346
1347
1348
1349
1350
1351
1352
1353
1354
1355
1356
1357
1358
1361
1362
1363
1364
1365
1366
1367
1368
1369
1370
1371
1372
1373
1374
1375
1376
1377
1378
1379
1380
1381
1382
1383
1384
1385
1386
1387
1388
1389
1390
1391
1392
1393
1394
1395
1396
1397
1398
1401
1402
1403
1404
1405
1406
1407
1408
1409
1410
1411
1412
1413
1414
1415
1416
1417
1418
1419
1420
1421
1422
1423
1424
1425
1426
1427
1428
1429
1430
1431
1432
1433
1434
1435
1436
1437
1438
1439
1441
1442
1443
1444
1445
1446
1447
1448
1449
1450
1451
1452
1453
1454
1455
1456
1457
1458
1459
1460
1461
1462
1463
1464
1465
1466
1467
1468
1469
1470
1471
1472
1473
1474
1475
1476
1477
1478
1479
1481
1482
1483
1484
1485
1486
1487
1488
1489
1490
1491
1492
1493
1494
1495
1496
1497
1498
1499
1500
1501
1502
1503
1504
1505
1506
1507
1508
1509
1510
1511
1512
1513
1514
1515
1516
1517
1518
1521
1522
1523
1524
1525
1526
1527
1528
1529
1530
1531
1532
1533
1534
1535
1536
1537
1538
1539
1540
1541
1542
1543
1544
1546
1550
1551
1552
1553
1554
1555
1556
1557
1558
1562
1563
1564
1565
1566
1567
1568
1569
1570
1571
1572
1573
1574
1575
1576
1585
1587
1592
1594
1596
1598
1599
1416
1016
1083
888
1263
55
937
1261
385
183
695
552
1252
917
1156
1490
1224
286
653
1120
619
265
142
1322
159
418
295
1246
489
1556
111
758
878
1116
1487
944
746
1301
494
784
780
951
283
1497
1091
850
542
69
1503
1466
195
599
971
496
1106
137
533
659
505
965
188
927
1410
886
1424
1509
486
693
1296
231
1567
625
1097
379
307
1219
64
1456
389
1250
1433
919
514
167
176
1140
1419
639
621
445
692
906
1286
390
753
638
792
1537
896
936
1154
1175
796
1024
1531
1265
1056
609
1338
1375
433
305
1491
603
342
1087
1404
1270
1036
87
1298
1525
1000
550
727
1378
457
86
544
674
1051
711
584
363
1070
1256
1436
212
575
531
1066
150
1182
216
1269
38
969
1393
507
1211
765
647
1160
1217
999
713
449
1282
654
845
106
1073
1110
767
501
1133
515
339
642
952
108
454
690
1462
607
688
509
899
498
1157
558
1364
467
1216
223
855
712
1105
1085
311
346
215
229
559
1038
274
887
585
131
70
789
366
1103
1228
1026
175
1415
851
724
633
19
1323
1011
1293
1374
155
186
940
1365
383
284
1422
1518
2
667
204
832
1575
963
434
327
737
1184
1401
992
1185
697
1455
334
3
399
1552
856
280
1167
93
149
246
1021
408
750
13
543
678
264
1512
1064
423
317
977
1187
329
556
1126
1297
1535
1598
437
616
1507
10
1391
314
873
239
1101
424
554
1350
749
1192
1372
428
21
365
1367
1181
875
694
1506
1255
464
1012
948
1403
1317
1534
978
974
1463
299
227
1155
1330
1569
270
1141
1090
1467
1017
351
179
1214
785
1368
643
285
1183
341
154
63
1533
1197
679
1366
304
764
1104
1207
772
1526
793
1527
1441
1230
1413
415
698
1149
113
374
1166
629
645
166
1395
897
1555
1129
869
1425
1076
1316
1495
27
934
104
1200
1352
838
957
287
1528
316
187
168
1253
255
130
1468
910
252
741
1303
773
1020
205
1580
1373
393
928
905
1173
443
469
438
1178
31
1257
256
925
373
943
1078
235
1447
914
392
932
830
783
1370
818
1179
1356
908
538
754
250
774
24
699
1493
1188
1482
371
127
1114
1519
276
592
343
209
827
681
715
1362
982
1428
233
1148
479
871
499
278
478
949
803
244
1096
1174
101
266
848
1233
953
984
1499
182
1014
1385
900
448
483
1130
993
1294
1532
862
802
534
1300
1308
745
769
1061
547
1206
884
853
430
689
335
1550
567
196
463
109
224
185
23
819
313
260
516
207
1053
115
1489
61
1190
797
68
1191
1195
622
481
675
1084
1025
885
842
810
762
725
545
1388
1568
686
956
600
831
1590
65
672
332
907
1264
1347
1432
614
808
44
1326
615
1398
1067
411
355
597
1307
548
15
1208
1194
1345
1241
236
217
1465
1152
1032
930
1541
1266
1311
730
1394
1113
1068
425
517
107
868
1271
1485
54
522
432
1557
388
700
606
1239
459
861
986
1510
1431
503
582
673
1234
4
59
67
563
382
859
1203
1275
650
124
202
1172
924
1351
40
816
794
1242
402
742
747
177
1469
208
271
958
1202
826
1176
1354
807
577
596
178
641
804
1162
1177
0
612
610
321
1511
983
844
119
998
872
865
740
1471
933
637
25
579
269
370
414
576
493
728
743
361
915
1196
1450
903
759
846
1134
1004
918
1107
763
1312
1429
1369
100
193
297
83
1283
624
1077
574
682
526
380
352
1237
262
470
833
189
1449
96
1327
1278
135
732
1318
1063
1310
472
518
1574
843
1003
562
412
203
551
1387
565
1386
1010
356
557
537
771
26
702
805
144
778
309
1319
398
1383
684
513
1414
1062
1095
1336
325
1363
1222
593
1389
409
219
473
587
837
1344
1570
979
1540
1220
735
707
1333
410
939
1435
510
268
1453
511
857
1305
71
330
85
658
152
1445
1405
465
945
1339
378
528
1522
180
1262
1337
279
435
911
892
1561
1142
959
1170
1046
275
966
417
344
1019
170
453
347
323
199
277
1508
1109
662
226
775
1486
1563
1058
1377
11
1477
657
997
206
9
864
322
1251
350
1564
125
58
588
369
656
232
1346
1384
126
1289
1538
345
210
148
1355
975
174
901
245
1483
555
1205
524
324
1108
663
1434
1371
1481
811
840
1553
225
211
729
806
273
541
895
1054
194
73
1034
1037
110
444
1137
620
145
482
391
439
1516
1226
972
396
326
75
1277
954
546
779
1565
987
590
586
328
103
635
608
315
790
611
1382
1381
291
436
716
368
756
530
222
1325
719
847
161
1343
752
751
989
348
57
988
1052
1131
1080
114
156
300
290
788
296
1529
1426
766
605
1138
617
293
668
683
302
1075
95
442
1407
105
738
123
1290
1086
12
1474
946
947
397
1502
539
1236
512
1494
913
1209
456
5
129
553
651
1536
447
669
431
1223
564
318
1353
484
416
1112
671
420
461
1287
809
1572
1470
98
709
1128
426
817
973
1292
1571
163
1150
1168
1125
889
583
527
985
301
870
455
849
1238
1099
696
1163
613
134
147
468
1288
1029
722
474
824
941
1500
1047
298
829
1551
1442
931
169
171
1291
60
1244
14
581
970
1153
714
1117
1048
508
504
748
560
1143
1042
357
306
891
636
218
462
676
1329
1189
815
138
594
1542
950
1094
62
572
677
1451
1268
230
117
427
1396
221
898
422
604
1444
1566
376
701
1484
1119
394
916
310
1411
1245
1464
303
717
1587
1199
781
1043
523
1204
877
292
6
466
536
102
1035
128
1515
568
259
1459
1392
791
680
968
1180
1231
500
89
242
1127
703
1524
1313
1573
495
519
8
627
655
289
184
1281
1044
623
1412
876
1100
1258
1457
902
823
1438
1596
1273
632
1225
143
491
446
1135
731
866
1030
1492
1306
1088
935
1033
1328
312
116
1488
1186
786
1169
1267
573
1437
1122
419
1007
926
1247
1082
942
1304
883
451
1299
1146
860
578
929
407
1136
664
1554
813
739
377
1027
1335
1018
770
165
122
994
1248
228
1060
214
1022
452
1279
540
798
1009
708
191
1446
1334
139
1314
1147
192
272
1443
254
82
1539
492
237
190
644
1420
258
1111
955
333
1118
777
1324
1285
247
1559
874
471
1123
867
1243
1055
734
602
1479
1045
1514
1460
1340
904
1260
776
1079
726
880
646
591
1501
238
1072
589
267
1144
172
634
1005
336
1274
1478
243
349
893
173
744
1379
506
821
153
1145
248
97
938
909
1132
1102
1331
721
359
353
1151
1089
384
1472
828
852
1397
1276
1475
234
529
1315
1476
1171
1430
1498
1408
476
490
520
358
99
580
1259
820
706
1406
354
1198
1418
140
157
1232
631
213
981
33
964
1558
1023
340
460
733
477
1028
858
1302
1074
1284
1496
249
1008
666
1517
1409
1057
450
566
294
395
1523
995
1098
1358
112
570
1006
1504
458
626
571
863
28
923
132
1213
1458
485
1093
660
146
535
403
1272
1357
736
381
141
652
319
723
1227
387
757
367
253
133
362
404
1059
1521
649
825
912
1530
406
331
197
685
894
812
386
1342
364
1165
628
1332
814
1417
836
782
1321
976
1448
1124
1423
1031
487
967
429
718
337
1139
1049
1427
768
822
1454
261
1390
1092
991
1215
1065
1159
665
1249
835
198
1115
1218
405
72
710
640
922
162
181
1015
1597
879
421
257
890
1421
1452
1039
569
1309
996
661
1380
1576
50
1473
618
151
1229
787
1235
1254
854
1164
136
158
1505
755
413
1013
839
990
1210
251
1069
687
549
1585
1071
1599
1341
372
502
834
497
705
799
475
525
1402
670
630
1562
74
488
1295
164
1349
308
1050
1376
66
375
338
980
1212
263
648
1461
704
532
800
1158
598
288
595
795
691
1513
1348
1221
1193
220
