# vtk DataFile Version 3.0
Motion
ASCII
DATASET UNSTRUCTURED_GRID
POINTS 12800 float
-19.875 -17.0318 0.994868
-19.875 -15.8772 0.994868
-19.875 -15.2998 0.994868
-19.875 -14.1451 0.994868
-19.875 -13.5677 0.994868
-19.875 -12.4131 0.994868
-19.875 -11.8357 0.994868
-19.875 -10.681 0.994868
-19.875 -10.1036 0.994868
-19.875 -8.94893 0.994868
-19.875 -8.37158 0.994868
-19.875 -7.21688 0.994868
-19.875 -6.63953 0.994868
-19.875 -5.48483 0.994868
-19.875 -4.90748 0.994868
-19.875 -3.75278 0.994868
-19.875 -3.17543 0.994868
-19.875 -2.02073 0.994868
-19.875 -1.44338 0.994868
-19.875 -0.288675 0.994868
-19.875 0.288675 0.994868
-19.875 1.44338 0.994868
-19.875 2.02073 0.994868
-19.875 3.17543 0.994868
-19.875 3.75278 0.994868
-19.875 4.90748 0.994868
-19.875 5.48483 0.994868
-19.875 6.63953 0.994868
-19.875 7.21688 0.994868
-19.875 8.37158 0.994868
-19.875 8.94893 0.994868
-19.875 10.1036 0.994868
-19.875 10.681 0.994868
-19.875 11.8357 0.994868
-19.875 12.4131 0.994868
-19.875 13.5677 0.994868
-19.875 14.1451 0.994868
-19.875 15.2998 0.994868
-19.875 15.8772 0.994868
-19.875 17.0318 0.994868
-19.75 -16.7432 0.985658
-19.625 -17.0318 0.970372
-19.5 -16.7432 0.949102
-19.375 -17.0318 0.921981
-19.25 -16.7432 0.889176
-19.125 -17.0318 0.850888
-19 -16.7432 0.807354
-18.875 -17.0318 0.758843
-18.75 -16.7432 0.705654
-18.625 -17.0318 0.648113
-18.5 -16.7432 0.586577
-18.375 -17.0318 0.521425
-18.25 -16.7432 0.453057
-18.125 -17.0318 0.381897
-18 -16.7432 0.308382
-17.875 -17.0318 0.232965
-17.75 -16.7432 0.156113
-17.625 -17.0318 0.0782977
-17.5 -16.7432 -1.52656e-16
-17.375 -17.0318 -0.0782977
-17.25 -16.7432 -0.156113
-17.125 -17.0318 -0.232965
-17 -16.7432 -0.308382
-16.875 -17.0318 -0.381897
-16.75 -16.7432 -0.453057
-16.625 -17.0318 -0.521425
-16.5 -16.7432 -0.586577
-16.375 -17.0318 -0.648113
-16.25 -16.7432 -0.705654
-16.125 -17.0318 -0.758843
-16 -16.7432 -0.807354
-15.875 -17.0318 -0.850888
-15.75 -16.7432 -0.889176
-15.625 -17.0318 -0.921981
-15.5 -16.7432 -0.949102
-15.375 -17.0318 -0.970372
-15.25 -16.7432 -0.985658
-15.125 -17.0318 -0.994868
-15 -16.7432 -0.997945
-14.875 -17.0318 -0.994868
-14.75 -16.7432 -0.985658
-14.625 -17.0318 -0.970372
-14.5 -16.7432 -0.949102
-14.375 -17.0318 -0.921981
-14.25 -16.7432 -0.889176
-14.125 -17.0318 -0.850888
-14 -16.7432 -0.807354
-13.875 -17.0318 -0.758843
-13.75 -16.7432 -0.705654
-13.625 -17.0318 -0.648113
-13.5 -16.7432 -0.586577
-13.375 -17.0318 -0.521425
-13.25 -16.7432 -0.453057
-13.125 -17.0318 -0.381897
-13 -16.7432 -0.308382
-12.875 -17.0318 -0.232965
-12.75 -16.7432 -0.156113
-12.625 -17.0318 -0.0782977
-12.5 -16.7432 9.71445e-17
-12.375 -17.0318 0.0782977
-12.25 -16.7432 0.156113
-12.125 -17.0318 0.232965
-12 -16.7432 0.308382
-11.875 -17.0318 0.381897
-11.75 -16.7432 0.453057
-11.625 -17.0318 0.521425
-11.5 -16.7432 0.586577
-11.375 -17.0318 0.648113
-11.25 -16.7432 0.705654
-11.125 -17.0318 0.758843
-11 -16.7432 0.807354
-10.875 -17.0318 0.850888
-10.75 -16.7432 0.889176
-10.625 -17.0318 0.921981
-10.5 -16.7432 0.949102
-10.375 -17.0318 0.970372
-10.25 -16.7432 0.985658
-10.125 -17.0318 0.994868
-10 -16.7432 0.997945
-9.875 -17.0318 0.994868
-9.75 -16.7432 0.985658
-9.625 -17.0318 0.970372
-9.5 -16.7432 0.949102
-9.375 -17.0318 0.921981
-9.25 -16.7432 0.889176
-9.125 -17.0318 0.850888
-9 -16.7432 0.807354
-8.875 -17.0318 0.758843
-8.75 -16.7432 0.705654
-8.625 -17.0318 0.648113
-8.5 -16.7432 0.586577
-8.375 -17.0318 0.521425
-8.25 -16.7432 0.453057
-8.125 -17.0318 0.381897
-8 -16.7432 0.308382
-7.875 -17.0318 0.232965
-7.75 -16.7432 0.156113
-7.625 -17.0318 0.0782977
-7.5 -16.7432 -5.55112e-17
-7.375 -17.0318 -0.0782977
-7.25 -16.7432 -0.156113
-7.125 -17.0318 -0.232965
-7 -16.7432 -0.308382
-6.875 -17.0318 -0.381897
-6.75 -16.7432 -0.453057
-6.625 -17.0318 -0.521425
-6.5 -16.7432 -0.586577
-6.375 -17.0318 -0.648113
-6.25 -16.7432 -0.705654
-6.125 -17.0318 -0.758843
-6 -16.7432 -0.807354
-5.875 -17.0318 -0.850888
-5.75 -16.7432 -0.889176
-5.625 -17.0318 -0.921981
-5.5 -16.7432 -0.949102
-5.375 -17.0318 -0.970372
-5.25 -16.7432 -0.985658
-5.125 -17.0318 -0.994868
-5 -16.7432 -0.997945
-4.875 -17.0318 -0.994868
-4.75 -16.7432 -0.985658
-4.625 -17.0318 -0.970372
-4.5 -16.7432 -0.949102
-4.375 -17.0318 -0.921981
-4.25 -16.7432 -0.889176
-4.125 -17.0318 -0.850888
-4 -16.7432 -0.807354
-3.875 -17.0318 -0.758843
-3.75 -16.7432 -0.705654
-3.625 -17.0318 -0.648113
-3.5 -16.7432 -0.586577
-3.375 -17.0318 -0.521425
-3.25 -16.7432 -0.453057
-3.125 -17.0318 -0.381897
-3 -16.7432 -0.308382
-2.875 -17.0318 -0.232965
-2.75 -16.7432 -0.156113
-2.625 -17.0318 -0.0782977
-2.5 -16.7432 1.38778e-17
-2.375 -17.0318 0.0782977
-2.25 -16.7432 0.156113
-2.125 -17.0318 0.232965
-2 -16.7432 0.308382
-1.875 -17.0318 0.381897
-1.75 -16.7432 0.453057
-1.625 -17.0318 0.521425
-1.5 -16.7432 0.586577
-1.375 -17.0318 0.648113
-1.25 -16.7432 0.705654
-1.125 -17.0318 0.758843
-1 -16.7432 0.807354
-0.875 -17.0318 0.850888
-0.75 -16.7432 0.889176
-0.625 -17.0318 0.921981
-0.5 -16.7432 0.949102
-0.375 -17.0318 0.970372
-0.25 -16.7432 0.985658
-0.125 -17.0318 0.994868
0 -16.7432 0.997945
0.125 -17.0318 0.994868
0.25 -16.7432 0.985658
0.375 -17.0318 0.970372
0.5 -16.7432 0.949102
0.625 -17.0318 0.921981
0.75 -16.7432 0.889176
0.875 -17.0318 0.850888
1 -16.7432 0.807354
1.125 -17.0318 0.758843
1.25 -16.7432 0.705654
1.375 -17.0318 0.648113
1.5 -16.7432 0.586577
1.625 -17.0318 0.521425
1.75 -16.7432 0.453057
1.875 -17.0318 0.381897
2 -16.7432 0.308382
2.125 -17.0318 0.232965
2.25 -16.7432 0.156113
2.375 -17.0318 0.0782977
2.5 -16.7432 1.38778e-17
2.625 -17.0318 -0.0782977
2.75 -16.7432 -0.156113
2.875 -17.0318 -0.232965
3 -16.7432 -0.308382
3.125 -17.0318 -0.381897
3.25 -16.7432 -0.453057
3.375 -17.0318 -0.521425
3.5 -16.7432 -0.586577
3.625 -17.0318 -0.648113
3.75 -16.7432 -0.705654
3.875 -17.0318 -0.758843
4 -16.7432 -0.807354
4.125 -17.0318 -0.850888
4.25 -16.7432 -0.889176
4.375 -17.0318 -0.921981
4.5 -16.7432 -0.949102
4.625 -17.0318 -0.970372
4.75 -16.7432 -0.985658
4.875 -17.0318 -0.994868
5 -16.7432 -0.997945
5.125 -17.0318 -0.994868
5.25 -16.7432 -0.985658
5.375 -17.0318 -0.970372
5.5 -16.7432 -0.949102
5.625 -17.0318 -0.921981
5.75 -16.7432 -0.889176
5.875 -17.0318 -0.850888
6 -16.7432 -0.807354
6.125 -17.0318 -0.758843
6.25 -16.7432 -0.705654
6.375 -17.0318 -0.648113
6.5 -16.7432 -0.586577
6.625 -17.0318 -0.521425
6.75 -16.7432 -0.453057
6.875 -17.0318 -0.381897
7 -16.7432 -0.308382
7.125 -17.0318 -0.232965
7.25 -16.7432 -0.156113
7.375 -17.0318 -0.0782977
7.5 -16.7432 -5.55112e-17
7.625 -17.0318 0.0782977
7.75 -16.7432 0.156113
7.875 -17.0318 0.232965
8 -16.7432 0.308382
8.125 -17.0318 0.381897
8.25 -16.7432 0.453057
8.375 -17.0318 0.521425
8.5 -16.7432 0.586577
8.625 -17.0318 0.648113
8.75 -16.7432 0.705654
8.875 -17.0318 0.758843
9 -16.7432 0.807354
9.125 -17.0318 0.850888
9.25 -16.7432 0.889176
9.375 -17.0318 0.921981
9.5 -16.7432 0.949102
9.625 -17.0318 0.970372
9.75 -16.7432 0.985658
9.875 -17.0318 0.994868
10 -16.7432 0.997945
10.125 -17.0318 0.994868
10.25 -16.7432 0.985658
10.375 -17.0318 0.970372
10.5 -16.7432 0.949102
10.625 -17.0318 0.921981
10.75 -16.7432 0.889176
10.875 -17.0318 0.850888
11 -16.7432 0.807354
11.125 -17.0318 0.758843
11.25 -16.7432 0.705654
11.375 -17.0318 0.648113
11.5 -16.7432 0.586577
11.625 -17.0318 0.521425
11.75 -16.7432 0.453057
11.875 -17.0318 0.381897
12 -16.7432 0.308382
12.125 -17.0318 0.232965
12.25 -16.7432 0.156113
12.375 -17.0318 0.0782977
12.5 -16.7432 9.71445e-17
12.625 -17.0318 -0.0782977
12.75 -16.7432 -0.156113
12.875 -17.0318 -0.232965
13 -16.7432 -0.308382
13.125 -17.0318 -0.381897
13.25 -16.7432 -0.453057
13.375 -17.0318 -0.521425
13.5 -16.7432 -0.586577
13.625 -17.0318 -0.648113
13.75 -16.7432 -0.705654
13.875 -17.0318 -0.758843
14 -16.7432 -0.807354
14.125 -17.0318 -0.850888
14.25 -16.7432 -0.889176
14.375 -17.0318 -0.921981
14.5 -16.7432 -0.949102
14.625 -17.0318 -0.970372
14.75 -16.7432 -0.985658
14.875 -17.0318 -0.994868
15 -16.7432 -0.997945
15.125 -17.0318 -0.994868
15.25 -16.7432 -0.985658
15.375 -17.0318 -0.970372
15.5 -16.7432 -0.949102
15.625 -17.0318 -0.921981
15.75 -16.7432 -0.889176
15.875 -17.0318 -0.850888
16 -16.7432 -0.807354
16.125 -17.0318 -0.758843
16.25 -16.7432 -0.705654
16.375 -17.0318 -0.648113
16.5 -16.7432 -0.586577
16.625 -17.0318 -0.521425
16.75 -16.7432 -0.453057
16.875 -17.0318 -0.381897
17 -16.7432 -0.308382
17.125 -17.0318 -0.232965
17.25 -16.7432 -0.156113
17.375 -17.0318 -0.0782977
17.5 -16.7432 -1.52656e-16
17.625 -17.0318 0.0782977
17.75 -16.7432 0.156113
17.875 -17.0318 0.232965
18 -16.7432 0.308382
18.125 -17.0318 0.381897
18.25 -16.7432 0.453057
18.375 -17.0318 0.521425
18.5 -16.7432 0.586577
18.625 -17.0318 0.648113
18.75 -16.7432 0.705654
18.875 -17.0318 0.758843
19 -16.7432 0.807354
19.125 -17.0318 0.850888
19.25 -16.7432 0.889176
19.375 -17.0318 0.921981
19.5 -16.7432 0.949102
19.625 -17.0318 0.970372
19.75 -16.7432 0.985658
19.875 -17.0318 0.994868
-19.75 -16.1658 0.985658
-19.625 -15.8772 0.970372
-19.5 -16.1658 0.949102
-19.375 -15.8772 0.921981
-19.25 -16.1658 0.889176
-19.125 -15.8772 0.850888
-19 -16.1658 0.807354
-18.875 -15.8772 0.758843
-18.75 -16.1658 0.705654
-18.625 -15.8772 0.648113
-18.5 -16.1658 0.586577
-18.375 -15.8772 0.521425
-18.25 -16.1658 0.453057
-18.125 -15.8772 0.381897
-18 -16.1658 0.308382
-17.875 -15.8772 0.232965
-17.75 -16.1658 0.156113
-17.625 -15.8772 0.0782977
-17.5 -16.1658 -1.52656e-16
-17.375 -15.8772 -0.0782977
-17.25 -16.1658 -0.156113
-17.125 -15.8772 -0.232965
-17 -16.1658 -0.308382
-16.875 -15.8772 -0.381897
-16.75 -16.1658 -0.453057
-16.625 -15.8772 -0.521425
-16.5 -16.1658 -0.586577
-16.375 -15.8772 -0.648113
-16.25 -16.1658 -0.705654
-16.125 -15.8772 -0.758843
-16 -16.1658 -0.807354
-15.875 -15.8772 -0.850888
-15.75 -16.1658 -0.889176
-15.625 -15.8772 -0.921981
-15.5 -16.1658 -0.949102
-15.375 -15.8772 -0.970372
-15.25 -16.1658 -0.985658
-15.125 -15.8772 -0.994868
-15 -16.1658 -0.997945
-14.875 -15.8772 -0.994868
-14.75 -16.1658 -0.985658
[...]
CELL_DATA 6004
SCALARS MEAN_CURVATURE float
LOOKUP_TABLE default
-0.185567
-0.191789
-0.185567
-0.191789
-0.185567
-0.191789
-0.185567
-0.191789
-0.185567
-0.191789
-0.185567
-0.191789
-0.185567
-0.191789
-0.185567
-0.191789
-0.185567
-0.191789
-0.185567
-0.191789
-0.185567
-0.191789
-0.185567
-0.191789
-0.185567
-0.191789
-0.185567
-0.191789
-0.185567
-0.191789
-0.185567
-0.191789
-0.185567
-0.191789
-0.185567
-0.191789
-0.185567
-0.191789
-0.167375
-0.177301
-0.167375
-0.177301
-0.167375
-0.177301
-0.167375
-0.177301
-0.167375
-0.177301
-0.167375
-0.177301
-0.167375
-0.177301
-0.167375
-0.177301
-0.167375
-0.177301
-0.167375
-0.177301
-0.167375
-0.177301
-0.167375
-0.177301
-0.167375
-0.177301
-0.167375
-0.177301
-0.167375
-0.177301
-0.167375
-0.177301
-0.167375
-0.177301
-0.167375
-0.177301
-0.167375
-0.177301
-0.144183
-0.156202
-0.144183
-0.156202
-0.144183
-0.156202
-0.144183
-0.156202
-0.144183
-0.156202
-0.144183
-0.156202
-0.144183
-0.156202
-0.144183
-0.156202
-0.144183
-0.156202
-0.144183
-0.156202
-0.144183
-0.156202
-0.144183
-0.156202
-0.144183
-0.156202
-0.144183
-0.156202
-0.144183
-0.156202
-0.144183
-0.156202
-0.144183
-0.156202
-0.144183
-0.156202
-0.144183
-0.156202
-0.119056
-0.131701
-0.119056
-0.131701
-0.119056
-0.131701
-0.119056
-0.131701
-0.119056
-0.131701
-0.119056
-0.131701
-0.119056
-0.131701
-0.119056
-0.131701
-0.119056
-0.131701
-0.119056
-0.131701
-0.119056
-0.131701
-0.119056
-0.131701
-0.119056
-0.131701
-0.119056
-0.131701
-0.119056
-0.131701
-0.119056
-0.131701
-0.119056
-0.131701
-0.119056
-0.131701
-0.119056
-0.131701
-0.0941467
-0.106482
-0.0941467
-0.106482
-0.0941467
-0.106482
-0.0941467
-0.106482
-0.0941467
-0.106482
-0.0941467
-0.106482
-0.0941467
-0.106482
-0.0941467
-0.106482
-0.0941467
-0.106482
-0.0941467
-0.106482
-0.0941467
-0.106482
-0.0941467
-0.106482
-0.0941467
-0.106482
-0.0941467
-0.106482
-0.0941467
-0.106482
-0.0941467
-0.106482
-0.0941467
-0.106482
-0.0941467
-0.106482
-0.0941467
-0.106482
-0.0706546
-0.0821839
-0.0706546
-0.0821839
-0.0706546
-0.0821839
-0.0706546
-0.0821839
-0.0706546
-0.0821839
-0.0706546
-0.0821839
-0.0706546
-0.0821839
-0.0706546
-0.0821839
-0.0706546
-0.0821839
-0.0706546
-0.0821839
-0.0706546
-0.0821839
-0.0706546
-0.0821839
-0.0706546
-0.0821839
-0.0706546
-0.0821839
-0.0706546
-0.0821839
-0.0706546
-0.0821839
-0.0706546
-0.0821839
-0.0706546
-0.0821839
-0.0706546
-0.0821839
-0.0488782
-0.0595462
-0.0488782
-0.0595462
-0.0488782
-0.0595462
-0.0488782
-0.0595462
-0.0488782
-0.0595462
-0.0488782
-0.0595462
-0.0488782
-0.0595462
-0.0488782
-0.0595462
-0.0488782
-0.0595462
-0.0488782
-0.0595462
-0.0488782
-0.0595462
-0.0488782
-0.0595462
-0.0488782
-0.0595462
-0.0488782
-0.0595462
-0.0488782
-0.0595462
-0.0488782
-0.0595462
-0.0488782
-0.0595462
-0.0488782
-0.0595462
-0.0488782
-0.0595462
-0.0286494
-0.0386084
-0.0286494
-0.0386084
-0.0286494
-0.0386084
-0.0286494
-0.0386084
-0.0286494
-0.0386084
-0.0286494
-0.0386084
-0.0286494
-0.0386084
-0.0286494
-0.0386084
-0.0286494
-0.0386084
-0.0286494
-0.0386084
-0.0286494
-0.0386084
-0.0286494
-0.0386084
-0.0286494
-0.0386084
-0.0286494
-0.0386084
-0.0286494
-0.0386084
-0.0286494
-0.0386084
-0.0286494
-0.0386084
-0.0286494
-0.0386084
-0.0286494
-0.0386084
-0.00943509
-0.0189499
-0.00943509
-0.0189499
-0.00943509
-0.0189499
-0.00943509
-0.0189499
-0.00943509
-0.0189499
-0.00943509
-0.0189499
-0.00943509
-0.0189499
-0.00943509
-0.0189499
-0.00943509
-0.0189499
-0.00943509
-0.0189499
-0.00943509
-0.0189499
-0.00943509
-0.0189499
-0.00943509
-0.0189499
-0.00943509
-0.0189499
-0.00943509
-0.0189499
-0.00943509
-0.0189499
-0.00943509
-0.0189499
-0.00943509
-0.0189499
-0.00943509
-0.0189499
0.00943509
4.40047e-15
0.00943509
4.52042e-15
0.00943509
4.40047e-15
0.00943509
4.56734e-15
0.00943509
4.42594e-15
0.00943509
4.40532e-15
0.00943509
4.40532e-15
0.00943509
4.40232e-15
0.00943509
4.40272e-15
0.00943509
4.45285e-15
0.00943509
4.37504e-15
0.00943509
4.40182e-15
0.00943509
4.4233e-15
0.00943509
4.4233e-15
0.00943509
4.35683e-15
0.00943509
4.45204e-15
0.00943509
4.39584e-15
0.00943509
4.42587e-15
0.00943509
4.39584e-15
0.0286494
0.0189499
0.0286494
0.0189499
0.0286494
0.0189499
0.0286494
0.0189499
0.0286494
0.0189499
0.0286494
0.0189499
0.0286494
0.0189499
0.0286494
0.0189499
0.0286494
0.0189499
0.0286494
0.0189499
0.0286494
0.0189499
0.0286494
0.0189499
0.0286494
0.0189499
0.0286494
0.0189499
0.0286494
0.0189499
0.0286494
0.0189499
0.0286494
0.0189499
0.0286494
0.0189499
0.0286494
0.0189499
0.0488782
0.0386084
0.0488782
0.0386084
0.0488782
0.0386084
0.0488782
0.0386084
0.0488782
0.0386084
0.0488782
0.0386084
0.0488782
0.0386084
0.0488782
0.0386084
0.0488782
0.0386084
0.0488782
0.0386084
0.0488782
0.0386084
0.0488782
0.0386084
0.0488782
0.0386084
0.0488782
0.0386084
0.0488782
0.0386084
0.0488782
0.0386084
0.0488782
0.0386084
0.0488782
0.0386084
0.0488782
0.0386084
0.0706546
0.0595462
0.0706546
0.0595462
0.0706546
0.0595462
0.0706546
0.0595462
0.0706546
0.0595462
0.0706546
0.0595462
0.0706546
0.0595462
0.0706546
0.0595462
0.0706546
0.0595462
0.0706546
0.0595462
0.0706546
0.0595462
0.0706546
0.0595462
0.0706546
0.0595462
0.0706546
0.0595462
0.0706546
0.0595462
0.0706546
0.0595462
0.0706546
0.0595462
0.0706546
0.0595462
0.0706546
0.0595462
0.0941467
0.0821839
0.0941467
0.0821839
0.0941467
0.0821839
0.0941467
0.0821839
0.0941467
0.0821839
0.0941467
0.0821839
0.0941467
0.0821839
0.0941467
0.0821839
0.0941467
0.0821839
0.0941467
0.0821839
0.0941467
0.0821839
0.0941467
0.0821839
0.0941467
0.0821839
0.0941467
0.0821839
0.0941467
0.0821839
0.0941467
0.0821839
0.0941467
0.0821839
0.0941467
0.0821839
0.0941467
0.0821839
0.119056
0.106482
0.119056
0.106482
0.119056
0.106482
0.119056
0.106482
0.119056
0.106482
0.119056
0.106482
0.119056
0.106482
0.119056
0.106482
0.119056
0.106482
0.119056
0.106482
0.119056
0.106482
0.119056
0.106482
0.119056
0.106482
0.119056
0.106482
0.119056
0.106482
0.119056
0.106482
0.119056
0.106482
0.119056
0.106482
0.119056
0.106482
0.144183
0.131701
0.144183
0.131701
0.144183
0.131701
0.144183
0.131701
0.144183
0.131701
0.144183
0.131701
0.144183
0.131701
0.144183
0.131701
0.144183
0.131701
0.144183
0.131701
0.144183
0.131701
0.144183
0.131701
0.144183
0.131701
0.144183
0.131701
0.144183
0.131701
0.144183
0.131701
0.144183
0.131701
0.144183
0.131701
0.144183
0.131701
0.167375
0.156202
0.167375
0.156202
0.167375
0.156202
0.167375
0.156202
0.167375
0.156202
0.167375
0.156202
0.167375
0.156202
0.167375
0.156202
0.167375
0.156202
0.167375
0.156202
0.167375
0.156202
0.167375
0.156202
0.167375
0.156202
0.167375
0.156202
0.167375
0.156202
0.167375
0.156202
0.167375
0.156202
0.167375
0.156202
0.167375
0.156202
0.185567
0.177301
0.185567
0.177301
0.185567
0.177301
0.185567
0.177301
0.185567
0.177301
0.185567
0.177301
0.185567
0.177301
0.185567
0.177301
0.185567
0.177301
0.185567
0.177301
0.185567
0.177301
0.185567
0.177301
0.185567
0.177301
0.185567
0.177301
0.185567
0.177301
0.185567
0.177301
0.185567
0.177301
0.185567
0.177301
0.185567
0.177301
0.195673
0.191789
0.195673
0.191789
0.195673
0.191789
0.195673
0.191789
0.195673
0.191789
0.195673
0.191789
0.195673
0.191789
0.195673
0.191789
0.195673
0.191789
0.195673
0.191789
0.195673
0.191789
0.195673
0.191789
0.195673
0.191789
0.195673
0.191789
0.195673
0.191789
0.195673
0.191789
0.195673
0.191789
0.195673
0.191789
0.195673
0.191789
0.195673
0.196999
0.195673
0.196999
0.195673
0.196999
0.195673
0.196999
0.195673
0.196999
0.195673
0.196999
0.195673
0.196999
0.195673
0.196999
0.195673
0.196999
0.195673
0.196999
0.195673
0.196999
0.195673
0.196999
0.195673
0.196999
0.195673
0.196999
0.195673
0.196999
0.195673
0.196999
0.195673
0.196999
0.195673
0.196999
0.195673
0.196999
0.185567
0.191789
0.185567
0.191789
0.185567
0.191789
0.185567
0.191789
0.185567
0.191789
0.185567
0.191789
0.185567
0.191789
0.185567
0.191789
0.185567
0.191789
0.185567
0.191789
0.185567
0.191789
0.185567
0.191789
0.185567
0.191789
0.185567
0.191789
0.185567
0.191789
0.185567
0.191789
0.185567
0.191789
0.185567
0.191789
0.185567
0.191789
0.167375
0.177301
0.167375
0.177301
0.167375
0.177301
0.167375
0.177301
0.167375
0.177301
0.167375
0.177301
0.167375
0.177301
0.167375
0.177301
0.167375
0.177301
0.167375
0.177301
0.167375
0.177301
0.167375
0.177301
0.167375
0.177301
0.167375
0.177301
0.167375
0.177301
0.167375
0.177301
0.167375
0.177301
0.167375
0.177301
0.167375
0.177301
0.144183
0.156202
0.144183
0.156202
0.144183
0.156202
0.144183
0.156202
0.144183
0.156202
0.144183
0.156202
0.144183
0.156202
0.144183
0.156202
0.144183
0.156202
0.144183
0.156202
0.144183
0.156202
0.144183
0.156202
0.144183
0.156202
0.144183
0.156202
0.144183
0.156202
0.144183
0.156202
0.144183
0.156202
0.144183
0.156202
0.144183
0.156202
0.119056
0.131701
0.119056
0.131701
0.119056
0.131701
0.119056
0.131701
0.119056
0.131701
0.119056
0.131701
0.119056
0.131701
0.119056
0.131701
0.119056
0.131701
0.119056
0.131701
0.119056
0.131701
0.119056
0.131701
0.119056
0.131701
0.119056
0.131701
0.119056
0.131701
0.119056
0.131701
0.119056
0.131701
0.119056
0.131701
0.119056
0.131701
0.0941467
0.106482
0.0941467
0.106482
0.0941467
0.106482
0.0941467
0.106482
0.0941467
0.106482
0.0941467
0.106482
0.0941467
0.106482
0.0941467
0.106482
0.0941467
0.106482
0.0941467
0.106482
0.0941467
0.106482
0.0941467
0.106482
0.0941467
0.106482
0.0941467
0.106482
0.0941467
0.106482
0.0941467
0.106482
0.0941467
0.106482
0.0941467
0.106482
0.0941467
0.106482
0.0706546
0.0821839
0.0706546
0.0821839
0.0706546
0.0821839
0.0706546
0.0821839
0.0706546
0.0821839
0.0706546
0.0821839
0.0706546
0.0821839
0.0706546
0.0821839
0.0706546
0.0821839
0.0706546
0.0821839
0.0706546
0.0821839
0.0706546
0.0821839
0.0706546
0.0821839
0.0706546
0.0821839
0.0706546
0.0821839
0.0706546
0.0821839
0.0706546
0.0821839
0.0706546
0.0821839
0.0706546
0.0821839
0.0488782
0.0595462
0.0488782
0.0595462
0.0488782
0.0595462
0.0488782
0.0595462
0.0488782
0.0595462
0.0488782
0.0595462
0.0488782
0.0595462
0.0488782
0.0595462
0.0488782
0.0595462
0.0488782
0.0595462
0.0488782
0.0595462
0.0488782
0.0595462
0.0488782
0.0595462
0.0488782
0.0595462
0.0488782
0.0595462
0.0488782
0.0595462
0.0488782
0.0595462
0.0488782
0.0595462
0.0488782
0.0595462
0.0286494
0.0386084
0.0286494
0.0386084
0.0286494
0.0386084
0.0286494
0.0386084
0.0286494
0.0386084
0.0286494
0.0386084
0.0286494
0.0386084
0.0286494
0.0386084
0.0286494
0.0386084
0.0286494
0.0386084
0.0286494
0.0386084
0.0286494
0.0386084
0.0286494
0.0386084
0.0286494
0.0386084
0.0286494
0.0386084
0.0286494
0.0386084
0.0286494
0.0386084
0.0286494
0.0386084
0.0286494
0.0386084
0.00943509
0.0189499
0.00943509
0.0189499
0.00943509
0.0189499
0.00943509
0.0189499
0.00943509
0.0189499
0.00943509
0.0189499
0.00943509
0.0189499
0.00943509
0.0189499
0.00943509
0.0189499
0.00943509
0.0189499
0.00943509
0.0189499
0.00943509
0.0189499
0.00943509
0.0189499
0.00943509
0.0189499
0.00943509
0.0189499
0.00943509
0.0189499
0.00943509
0.0189499
0.00943509
0.0189499
0.00943509
0.0189499
-0.00943509
-3.34942e-15
-0.00943509
-3.19088e-15
-0.00943509
-3.34942e-15
-0.00943509
-3.23781e-15
-0.00943509
-3.30955e-15
-0.00943509
-3.30837e-15
-0.00943509
-3.30837e-15
-0.00943509
-3.30536e-15
-0.00943509
-3.2823e-15
-0.00943509
-3.257e-15
-0.00943509
-3.27809e-15
-0.00943509
-3.21204e-15
-0.00943509
-3.19167e-15
-0.00943509
-3.19167e-15
-0.00943509
-3.21295e-15
-0.00943509
-3.23879e-15
-0.00943509
-3.34479e-15
-0.00943509
-3.09634e-15
-0.00943509
-3.34479e-15
-0.0286494
-0.0189499
-0.0286494
-0.0189499
-0.0286494
-0.0189499
-0.0286494
-0.0189499
-0.0286494
-0.0189499
-0.0286494
-0.0189499
-0.0286494
-0.0189499
-0.0286494
-0.0189499
-0.0286494
-0.0189499
-0.0286494
-0.0189499
-0.0286494
-0.0189499
-0.0286494
-0.0189499
-0.0286494
-0.0189499
-0.0286494
-0.0189499
-0.0286494
-0.0189499
-0.0286494
-0.0189499
-0.0286494
-0.0189499
-0.0286494
-0.0189499
-0.0286494
-0.0189499
-0.0488782
-0.0386084
-0.0488782
-0.0386084
-0.0488782
-0.0386084
-0.0488782
-0.0386084
-0.0488782
-0.0386084
-0.0488782
-0.0386084
-0.0488782
-0.0386084
-0.0488782
-0.0386084
-0.0488782
-0.0386084
-0.0488782
-0.0386084
-0.0488782
-0.0386084
-0.0488782
-0.0386084
-0.0488782
-0.0386084
-0.0488782
-0.0386084
-0.0488782
-0.0386084
-0.0488782
-0.0386084
-0.0488782
-0.0386084
-0.0488782
-0.0386084
-0.0488782
-0.0386084
-0.0706546
-0.0595462
-0.0706546
-0.0595462
-0.0706546
-0.0595462
-0.0706546
-0.0595462
-0.0706546
-0.0595462
-0.0706546
-0.0595462
-0.0706546
-0.0595462
-0.0706546
-0.0595462
-0.0706546
-0.0595462
-0.0706546
-0.0595462
-0.0706546
-0.0595462
-0.0706546
-0.0595462
-0.0706546
-0.0595462
-0.0706546
-0.0595462
-0.0706546
-0.0595462
-0.0706546
-0.0595462
-0.0706546
-0.0595462
-0.0706546
-0.0595462
-0.0706546
-0.0595462
-0.0941467
-0.0821839
-0.0941467
-0.0821839
-0.0941467
-0.0821839
-0.0941467
-0.0821839
-0.0941467
-0.0821839
-0.0941467
-0.0821839
-0.0941467
-0.0821839
-0.0941467
-0.0821839
-0.0941467
-0.0821839
-0.0941467
-0.0821839
-0.0941467
-0.0821839
-0.0941467
-0.0821839
-0.0941467
-0.0821839
-0.0941467
-0.0821839
-0.0941467
-0.0821839
-0.0941467
-0.0821839
-0.0941467
-0.0821839
-0.0941467
-0.0821839
-0.0941467
-0.0821839
-0.119056
-0.106482
-0.119056
-0.106482
-0.119056
-0.106482
-0.119056
-0.106482
-0.119056
-0.106482
-0.119056
-0.106482
-0.119056
-0.106482
-0.119056
-0.106482
-0.119056
-0.106482
-0.119056
-0.106482
-0.119056
-0.106482
-0.119056
-0.106482
-0.119056
-0.106482
-0.119056
-0.106482
-0.119056
-0.106482
-0.119056
-0.106482
-0.119056
-0.106482
-0.119056
-0.106482
-0.119056
-0.106482
-0.144183
-0.131701
-0.144183
-0.131701
-0.144183
-0.131701
-0.144183
-0.131701
-0.144183
-0.131701
-0.144183
-0.131701
-0.144183
-0.131701
-0.144183
-0.131701
-0.144183
-0.131701
-0.144183
-0.131701
-0.144183
-0.131701
-0.144183
-0.131701
-0.144183
-0.131701
-0.144183
-0.131701
-0.144183
-0.131701
-0.144183
-0.131701
-0.144183
-0.131701
-0.144183
-0.131701
-0.144183
-0.131701
-0.167375
-0.156202
-0.167375
-0.156202
-0.167375
-0.156202
-0.167375
-0.156202
-0.167375
-0.156202
-0.167375
-0.156202
-0.167375
-0.156202
-0.167375
-0.156202
-0.167375
-0.156202
-0.167375
-0.156202
-0.167375
-0.156202
-0.167375
-0.156202
-0.167375
-0.156202
-0.167375
-0.156202
-0.167375
-0.156202
-0.167375
-0.156202
-0.167375
-0.156202
-0.167375
-0.156202
-0.167375
-0.156202
-0.185567
-0.177301
-0.185567
-0.177301
-0.185567
-0.177301
-0.185567
-0.177301
-0.185567
-0.177301
-0.185567
-0.177301
-0.185567
-0.177301
-0.185567
-0.177301
-0.185567
-0.177301
-0.185567
-0.177301
-0.185567
-0.177301
-0.185567
-0.177301
-0.185567
-0.177301
-0.185567
-0.177301
-0.185567
-0.177301
-0.185567
-0.177301
-0.185567
-0.177301
-0.185567
-0.177301
-0.185567
-0.177301
-0.195673
-0.191789
-0.195673
-0.191789
-0.195673
-0.191789
-0.195673
-0.191789
-0.195673
-0.191789
-0.195673
-0.191789
-0.195673
-0.191789
-0.195673
-0.191789
-0.195673
-0.191789
-0.195673
-0.191789
-0.195673
-0.191789
-0.195673
-0.191789
-0.195673
-0.191789
-0.195673
-0.191789
-0.195673
-0.191789
-0.195673
-0.191789
-0.195673
-0.191789
-0.195673
-0.191789
-0.195673
-0.191789
-0.195673
-0.196999
-0.195673
-0.196999
-0.195673
-0.196999
-0.195673
-0.196999
-0.195673
-0.196999
-0.195673
-0.196999
-0.195673
-0.196999
-0.195673
-0.196999
-0.195673
-0.196999
-0.195673
-0.196999
-0.195673
-0.196999
-0.195673
-0.196999
-0.195673
-0.196999
-0.195673
-0.196999
-0.195673
-0.196999
-0.195673
-0.196999
-0.195673
-0.196999
-0.195673
-0.196999
-0.195673
-0.196999
-0.185567
-0.191789
-0.185567
-0.191789
-0.185567
-0.191789
-0.185567
-0.191789
-0.185567
-0.191789
-0.185567
-0.191789
-0.185567
-0.191789
-0.185567
-0.191789
-0.185567
-0.191789
-0.185567
-0.191789
-0.185567
-0.191789
-0.185567
-0.191789
-0.185567
-0.191789
-0.185567
-0.191789
-0.185567
-0.191789
-0.185567
-0.191789
-0.185567
-0.191789
-0.185567
-0.191789
-0.185567
-0.191789
-0.167375
-0.177301
-0.167375
-0.177301
-0.167375
-0.177301
-0.167375
-0.177301
-0.167375
-0.177301
-0.167375
-0.177301
-0.167375
-0.177301
-0.167375
-0.177301
-0.167375
-0.177301
-0.167375
-0.177301
-0.167375
-0.177301
-0.167375
-0.177301
-0.167375
-0.177301
-0.167375
-0.177301
-0.167375
-0.177301
-0.167375
-0.177301
-0.167375
-0.177301
-0.167375
-0.177301
-0.167375
-0.177301
-0.144183
-0.156202
-0.144183
-0.156202
-0.144183
-0.156202
-0.144183
-0.156202
-0.144183
-0.156202
-0.144183
-0.156202
-0.144183
-0.156202
-0.144183
-0.156202
-0.144183
-0.156202
-0.144183
-0.156202
-0.144183
-0.156202
-0.144183
-0.156202
-0.144183
-0.156202
-0.144183
-0.156202
-0.144183
-0.156202
-0.144183
-0.156202
-0.144183
-0.156202
-0.144183
-0.156202
-0.144183
-0.156202
-0.119056
-0.131701
-0.119056
-0.131701
-0.119056
-0.131701
-0.119056
-0.131701
-0.119056
-0.131701
-0.119056
-0.131701
-0.119056
-0.131701
-0.119056
-0.131701
-0.119056
-0.131701
-0.119056
-0.131701
-0.119056
-0.131701
-0.119056
-0.131701
-0.119056
-0.131701
-0.119056
-0.131701
-0.119056
-0.131701
-0.119056
-0.131701
-0.119056
-0.131701
-0.119056
-0.131701
-0.119056
-0.131701
-0.0941467
-0.106482
-0.0941467
-0.106482
-0.0941467
-0.106482
-0.0941467
-0.106482
-0.0941467
-0.106482
-0.0941467
-0.106482
-0.0941467
-0.106482
-0.0941467
-0.106482
-0.0941467
-0.106482
-0.0941467
-0.106482
-0.0941467
-0.106482
-0.0941467
-0.106482
-0.0941467
-0.106482
-0.0941467
-0.106482
-0.0941467
-0.106482
-0.0941467
-0.106482
-0.0941467
-0.106482
-0.0941467
-0.106482
-0.0941467
-0.106482
-0.0706546
-0.0821839
-0.0706546
-0.0821839
-0.0706546
-0.0821839
-0.0706546
-0.0821839
-0.0706546
-0.0821839
-0.0706546
-0.0821839
-0.0706546
-0.0821839
-0.0706546
-0.0821839
-0.0706546
-0.0821839
-0.0706546
-0.0821839
-0.0706546
-0.0821839
-0.0706546
-0.0821839
-0.0706546
-0.0821839
-0.0706546
-0.0821839
-0.0706546
-0.0821839
-0.0706546
-0.0821839
-0.0706546
-0.0821839
-0.0706546
-0.0821839
-0.0706546
-0.0821839
-0.0488782
-0.0595462
-0.0488782
-0.0595462
-0.0488782
-0.0595462
-0.0488782
-0.0595462
-0.0488782
-0.0595462
-0.0488782
-0.0595462
-0.0488782
-0.0595462
-0.0488782
-0.0595462
-0.0488782
-0.0595462
-0.0488782
-0.0595462
-0.0488782
-0.0595462
-0.0488782
-0.0595462
-0.0488782
-0.0595462
-0.0488782
-0.0595462
-0.0488782
-0.0595462
-0.0488782
-0.0595462
-0.0488782
-0.0595462
-0.0488782
-0.0595462
-0.0488782
-0.0595462
-0.0286494
-0.0386084
-0.0286494
-0.0386084
-0.0286494
-0.0386084
-0.0286494
-0.0386084
-0.0286494
-0.0386084
-0.0286494
-0.0386084
-0.0286494
-0.0386084
-0.0286494
-0.0386084
-0.0286494
-0.0386084
-0.0286494
-0.0386084
-0.0286494
-0.0386084
-0.0286494
-0.0386084
-0.0286494
-0.0386084
-0.0286494
-0.0386084
-0.0286494
-0.0386084
-0.0286494
-0.0386084
-0.0286494
-0.0386084
-0.0286494
-0.0386084
-0.0286494
-0.0386084
-0.00943509
-0.0189499
-0.00943509
-0.0189499
-0.00943509
-0.0189499
-0.00943509
-0.0189499
-0.00943509
-0.0189499
-0.00943509
-0.0189499
-0.00943509
-0.0189499
-0.00943509
-0.0189499
-0.00943509
-0.0189499
-0.00943509
-0.0189499
-0.00943509
-0.0189499
-0.00943509
-0.0189499
-0.00943509
-0.0189499
-0.00943509
-0.0189499
-0.00943509
-0.0189499
-0.00943509
-0.0189499
-0.00943509
-0.0189499
-0.00943509
-0.0189499
-0.00943509
-0.0189499
0.00943509
2.0199e-15
0.00943509
2.02455e-15
0.00943509
2.0199e-15
0.00943509
2.02353e-15
0.00943509
1.88316e-15
0.00943509
2.04922e-15
0.00943509
2.04922e-15
0.00943509
2.04622e-15
0.00943509
2.02316e-15
0.00943509
2.14265e-15
0.00943509
1.99548e-15
0.00943509
2.02226e-15
0.00943509
1.99681e-15
0.00943509
1.99681e-15
0.00943509
1.92427e-15
0.00943509
1.93169e-15
0.00943509
2.06116e-15
0.00943509
2.02284e-15
0.00943509
2.06116e-15
0.0286494
0.0189499
0.0286494
0.0189499
0.0286494
0.0189499
0.0286494
0.0189499
0.0286494
0.0189499
0.0286494
0.0189499
0.0286494
0.0189499
0.0286494
0.0189499
0.0286494
0.0189499
0.0286494
0.0189499
0.0286494
0.0189499
0.0286494
0.0189499
0.0286494
0.0189499
0.0286494
0.0189499
0.0286494
0.0189499
0.0286494
0.0189499
0.0286494
0.0189499
0.0286494
0.0189499
0.0286494
0.0189499
0.0488782
0.0386084
0.0488782
0.0386084
0.0488782
0.0386084
0.0488782
0.0386084
0.0488782
0.0386084
0.0488782
0.0386084
0.0488782
0.0386084
0.0488782
0.0386084
0.0488782
0.0386084
0.0488782
0.0386084