# vtk DataFile Version 3.0
Motion
ASCII
DATASET UNSTRUCTURED_GRID
POINTS 12800 float
-19.5 -17.2483 0.995896
-19.5 -16.9597 0.963267
-19.5 -16.8153 0.93104
-19.5 -16.5267 0.836347
-19.5 -16.3823 0.775047
-19.5 -16.0937 0.627559
-19.5 -15.9493 0.543187
-19.5 -15.6607 0.357341
-19.5 -15.5163 0.258156
-19.5 -15.2276 0.0521447
-19.5 -15.0832 -0.0521447
-19.5 -14.7946 -0.258156
-19.5 -14.6502 -0.357341
-19.5 -14.3616 -0.543187
-19.5 -14.2172 -0.627559
-19.5 -13.9286 -0.775047
-19.5 -13.7842 -0.836347
-19.5 -13.4956 -0.93104
-19.5 -13.3512 -0.963267
-19.5 -13.0626 -0.995896
-19.5 -12.9182 -0.995896
-19.5 -12.6296 -0.963267
-19.5 -12.4852 -0.93104
-19.5 -12.1966 -0.836347
-19.5 -12.0522 -0.775047
-19.5 -11.7635 -0.627559
-19.5 -11.6191 -0.543187
-19.5 -11.3305 -0.357341
-19.5 -11.1861 -0.258156
-19.5 -10.8975 -0.0521447
-19.5 -10.7531 0.0521447
-19.5 -10.4645 0.258156
-19.5 -10.3201 0.357341
-19.5 -10.0315 0.543187
-19.5 -9.88712 0.627559
-19.5 -9.59845 0.775047
-19.5 -9.45411 0.836347
-19.5 -9.16544 0.93104
-19.5 -9.0211 0.963267
-19.5 -8.73242 0.995896
-19.5 -8.58808 0.995896
-19.5 -8.29941 0.963267
-19.5 -8.15507 0.93104
-19.5 -7.8664 0.836347
-19.5 -7.72206 0.775047
-19.5 -7.43339 0.627559
-19.5 -7.28905 0.543187
-19.5 -7.00037 0.357341
-19.5 -6.85603 0.258156
-19.5 -6.56736 0.0521447
-19.5 -6.42302 -0.0521447
-19.5 -6.13435 -0.258156
-19.5 -5.99001 -0.357341
-19.5 -5.70134 -0.543187
-19.5 -5.557 -0.627559
-19.5 -5.26832 -0.775047
-19.5 -5.12398 -0.836347
-19.5 -4.83531 -0.93104
-19.5 -4.69097 -0.963267
-19.5 -4.4023 -0.995896
-19.5 -4.25796 -0.995896
-19.5 -3.96928 -0.963267
-19.5 -3.82494 -0.93104
-19.5 -3.53627 -0.836347
-19.5 -3.39193 -0.775047
-19.5 -3.10326 -0.627559
-19.5 -2.95892 -0.543187
-19.5 -2.67025 -0.357341
-19.5 -2.52591 -0.258156
-19.5 -2.23723 -0.0521447
-19.5 -2.09289 0.0521447
-19.5 -1.80422 0.258156
-19.5 -1.65988 0.357341
-19.5 -1.37121 0.543187
-19.5 -1.22687 0.627559
-19.5 -0.938193 0.775047
-19.5 -0.793856 0.836347
-19.5 -0.505182 0.93104
-19.5 -0.360844 0.963267
-19.5 -0.0721687 0.995896
-19.5 0.0721687 0.995896
-19.5 0.360844 0.963267
-19.5 0.505182 0.93104
-19.5 0.793856 0.836347
-19.5 0.938193 0.775047
-19.5 1.22687 0.627559
-19.5 1.37121 0.543187
-19.5 1.65988 0.357341
-19.5 1.80422 0.258156
-19.5 2.09289 0.0521447
-19.5 2.23723 -0.0521447
-19.5 2.52591 -0.258156
-19.5 2.67025 -0.357341
-19.5 2.95892 -0.543187
-19.5 3.10326 -0.627559
-19.5 3.39193 -0.775047
-19.5 3.53627 -0.836347
-19.5 3.82494 -0.93104
-19.5 3.96928 -0.963267
-19.5 4.25796 -0.995896
-19.5 4.4023 -0.995896
-19.5 4.69097 -0.963267
-19.5 4.83531 -0.93104
-19.5 5.12398 -0.836347
-19.5 5.26832 -0.775047
-19.5 5.557 -0.627559
-19.5 5.70134 -0.543187
-19.5 5.99001 -0.357341
-19.5 6.13435 -0.258156
-19.5 6.42302 -0.0521447
-19.5 6.56736 0.0521447
-19.5 6.85603 0.258156
-19.5 7.00037 0.357341
-19.5 7.28905 0.543187
-19.5 7.43339 0.627559
-19.5 7.72206 0.775047
-19.5 7.8664 0.836347
-19.5 8.15507 0.93104
-19.5 8.29941 0.963267
-19.5 8.58808 0.995896
-19.5 8.73242 0.995896
-19.5 9.0211 0.963267
-19.5 9.16544 0.93104
-19.5 9.45411 0.836347
-19.5 9.59845 0.775047
-19.5 9.88712 0.627559
-19.5 10.0315 0.543187
-19.5 10.3201 0.357341
-19.5 10.4645 0.258156
-19.5 10.7531 0.0521447
-19.5 10.8975 -0.0521447
-19.5 11.1861 -0.258156
-19.5 11.3305 -0.357341
-19.5 11.6191 -0.543187
-19.5 11.7635 -0.627559
-19.5 12.0522 -0.775047
-19.5 12.1966 -0.836347
-19.5 12.4852 -0.93104
-19.5 12.6296 -0.963267
-19.5 12.9182 -0.995896
-19.5 13.0626 -0.995896
-19.5 13.3512 -0.963267
-19.5 13.4956 -0.93104
-19.5 13.7842 -0.836347
-19.5 13.9286 -0.775047
-19.5 14.2172 -0.627559
-19.5 14.3616 -0.543187
-19.5 14.6502 -0.357341
-19.5 14.7946 -0.258156
-19.5 15.0832 -0.0521447
-19.5 15.2276 0.0521447
-19.5 15.5163 0.258156
-19.5 15.6607 0.357341
-19.5 15.9493 0.543187
-19.5 16.0937 0.627559
-19.5 16.3823 0.775047
-19.5 16.5267 0.836347
-19.5 16.8153 0.93104
-19.5 16.9597 0.963267
-19.5 17.2483 0.995896
-19 -17.1762 0.991792
-18.5 -17.2483 0.995896
-18 -17.1762 0.991792
-17.5 -17.2483 0.995896
-17 -17.1762 0.991792
-16.5 -17.2483 0.995896
-16 -17.1762 0.991792
-15.5 -17.2483 0.995896
-15 -17.1762 0.991792
-14.5 -17.2483 0.995896
-14 -17.1762 0.991792
-13.5 -17.2483 0.995896
-13 -17.1762 0.991792
-12.5 -17.2483 0.995896
-12 -17.1762 0.991792
-11.5 -17.2483 0.995896
-11 -17.1762 0.991792
-10.5 -17.2483 0.995896
-10 -17.1762 0.991792
-9.5 -17.2483 0.995896
-9 -17.1762 0.991792
-8.5 -17.2483 0.995896
-8 -17.1762 0.991792
-7.5 -17.2483 0.995896
-7 -17.1762 0.991792
-6.5 -17.2483 0.995896
-6 -17.1762 0.991792
-5.5 -17.2483 0.995896
-5 -17.1762 0.991792
-4.5 -17.2483 0.995896
-4 -17.1762 0.991792
-3.5 -17.2483 0.995896
-3 -17.1762 0.991792
-2.5 -17.2483 0.995896
-2 -17.1762 0.991792
-1.5 -17.2483 0.995896
-1 -17.1762 0.991792
-0.5 -17.2483 0.995896
0 -17.1762 0.991792
0.5 -17.2483 0.995896
1 -17.1762 0.991792
1.5 -17.2483 0.995896
2 -17.1762 0.991792
2.5 -17.2483 0.995896
3 -17.1762 0.991792
3.5 -17.2483 0.995896
4 -17.1762 0.991792
4.5 -17.2483 0.995896
5 -17.1762 0.991792
5.5 -17.2483 0.995896
6 -17.1762 0.991792
6.5 -17.2483 0.995896
7 -17.1762 0.991792
7.5 -17.2483 0.995896
8 -17.1762 0.991792
8.5 -17.2483 0.995896
9 -17.1762 0.991792
9.5 -17.2483 0.995896
10 -17.1762 0.991792
10.5 -17.2483 0.995896
11 -17.1762 0.991792
11.5 -17.2483 0.995896
12 -17.1762 0.991792
12.5 -17.2483 0.995896
13 -17.1762 0.991792
13.5 -17.2483 0.995896
14 -17.1762 0.991792
14.5 -17.2483 0.995896
15 -17.1762 0.991792
15.5 -17.2483 0.995896
16 -17.1762 0.991792
16.5 -17.2483 0.995896
17 -17.1762 0.991792
17.5 -17.2483 0.995896
18 -17.1762 0.991792
18.5 -17.2483 0.995896
19 -17.1762 0.991792
19.5 -17.2483 0.995896
-19 -17.0318 0.975478
-18.5 -16.9597 0.963267
-18 -17.0318 0.975478
-17.5 -16.9597 0.963267
-17 -17.0318 0.975478
-16.5 -16.9597 0.963267
-16 -17.0318 0.975478
-15.5 -16.9597 0.963267
-15 -17.0318 0.975478
-14.5 -16.9597 0.963267
-14 -17.0318 0.975478
-13.5 -16.9597 0.963267
-13 -17.0318 0.975478
-12.5 -16.9597 0.963267
-12 -17.0318 0.975478
-11.5 -16.9597 0.963267
-11 -17.0318 0.975478
-10.5 -16.9597 0.963267
-10 -17.0318 0.975478
-9.5 -16.9597 0.963267
-9 -17.0318 0.975478
-8.5 -16.9597 0.963267
-8 -17.0318 0.975478
-7.5 -16.9597 0.963267
-7 -17.0318 0.975478
-6.5 -16.9597 0.963267
-6 -17.0318 0.975478
-5.5 -16.9597 0.963267
-5 -17.0318 0.975478
-4.5 -16.9597 0.963267
-4 -17.0318 0.975478
-3.5 -16.9597 0.963267
-3 -17.0318 0.975478
-2.5 -16.9597 0.963267
-2 -17.0318 0.975478
-1.5 -16.9597 0.963267
-1 -17.0318 0.975478
-0.5 -16.9597 0.963267
0 -17.0318 0.975478
0.5 -16.9597 0.963267
1 -17.0318 0.975478
1.5 -16.9597 0.963267
2 -17.0318 0.975478
2.5 -16.9597 0.963267
3 -17.0318 0.975478
3.5 -16.9597 0.963267
4 -17.0318 0.975478
4.5 -16.9597 0.963267
5 -17.0318 0.975478
5.5 -16.9597 0.963267
6 -17.0318 0.975478
6.5 -16.9597 0.963267
7 -17.0318 0.975478
7.5 -16.9597 0.963267
8 -17.0318 0.975478
8.5 -16.9597 0.963267
9 -17.0318 0.975478
9.5 -16.9597 0.963267
10 -17.0318 0.975478
10.5 -16.9597 0.963267
11 -17.0318 0.975478
11.5 -16.9597 0.963267
12 -17.0318 0.975478
12.5 -16.9597 0.963267
13 -17.0318 0.975478
13.5 -16.9597 0.963267
14 -17.0318 0.975478
14.5 -16.9597 0.963267
15 -17.0318 0.975478
15.5 -16.9597 0.963267
16 -17.0318 0.975478
16.5 -16.9597 0.963267
17 -17.0318 0.975478
17.5 -16.9597 0.963267
18 -17.0318 0.975478
18.5 -16.9597 0.963267
19 -17.0318 0.975478
19.5 -16.9597 0.963267
-19 -16.7432 0.911024
-18.5 -16.8153 0.93104
-18 -16.7432 0.911024
-17.5 -16.8153 0.93104
-17 -16.7432 0.911024
-16.5 -16.8153 0.93104
-16 -16.7432 0.911024
-15.5 -16.8153 0.93104
-15 -16.7432 0.911024
-14.5 -16.8153 0.93104
-14 -16.7432 0.911024
-13.5 -16.8153 0.93104
-13 -16.7432 0.911024
-12.5 -16.8153 0.93104
-12 -16.7432 0.911024
-11.5 -16.8153 0.93104
-11 -16.7432 0.911024
-10.5 -16.8153 0.93104
-10 -16.7432 0.911024
-9.5 -16.8153 0.93104
-9 -16.7432 0.911024
-8.5 -16.8153 0.93104
-8 -16.7432 0.911024
-7.5 -16.8153 0.93104
-7 -16.7432 0.911024
-6.5 -16.8153 0.93104
-6 -16.7432 0.911024
-5.5 -16.8153 0.93104
-5 -16.7432 0.911024
-4.5 -16.8153 0.93104
-4 -16.7432 0.911024
-3.5 -16.8153 0.93104
-3 -16.7432 0.911024
-2.5 -16.8153 0.93104
-2 -16.7432 0.911024
-1.5 -16.8153 0.93104
-1 -16.7432 0.911024
-0.5 -16.8153 0.93104
0 -16.7432 0.911024
0.5 -16.8153 0.93104
1 -16.7432 0.911024
1.5 -16.8153 0.93104
2 -16.7432 0.911024
2.5 -16.8153 0.93104
3 -16.7432 0.911024
3.5 -16.8153 0.93104
4 -16.7432 0.911024
4.5 -16.8153 0.93104
5 -16.7432 0.911024
5.5 -16.8153 0.93104
6 -16.7432 0.911024
6.5 -16.8153 0.93104
7 -16.7432 0.911024
7.5 -16.8153 0.93104
8 -16.7432 0.911024
8.5 -16.8153 0.93104
9 -16.7432 0.911024
9.5 -16.8153 0.93104
10 -16.7432 0.911024
10.5 -16.8153 0.93104
11 -16.7432 0.911024
11.5 -16.8153 0.93104
12 -16.7432 0.911024
12.5 -16.8153 0.93104
13 -16.7432 0.911024
13.5 -16.8153 0.93104
14 -16.7432 0.911024
14.5 -16.8153 0.93104
15 -16.7432 0.911024
15.5 -16.8153 0.93104
16 -16.7432 0.911024
16.5 -16.8153 0.93104
17 -16.7432 0.911024
17.5 -16.8153 0.93104
18 -16.7432 0.911024
18.5 -16.8153 0.93104
19 -16.7432 0.911024
19.5 -16.8153 0.93104
-19 -16.5988 0.863677
-18.5 -16.5267 0.836347
-18 -16.5988 0.863677
-17.5 -16.5267 0.836347
-17 -16.5988 0.863677
-16.5 -16.5267 0.836347
-16 -16.5988 0.863677
-15.5 -16.5267 0.836347
-15 -16.5988 0.863677
-14.5 -16.5267 0.836347
-14 -16.5988 0.863677
-13.5 -16.5267 0.836347
-13 -16.5988 0.863677
-12.5 -16.5267 0.836347
-12 -16.5988 0.863677
-11.5 -16.5267 0.836347
-11 -16.5988 0.863677
-10.5 -16.5267 0.836347
-10 -16.5988 0.863677
-9.5 -16.5267 0.836347
-9 -16.5988 0.863677
-8.5 -16.5267 0.836347
-8 -16.5988 0.863677
-7.5 -16.5267 0.836347
-7 -16.5988 0.863677
-6.5 -16.5267 0.836347
-6 -16.5988 0.863677
-5.5 -16.5267 0.836347
-5 -16.5988 0.863677
-4.5 -16.5267 0.836347
-4 -16.5988 0.863677
-3.5 -16.5267 0.836347
-3 -16.5988 0.863677
-2.5 -16.5267 0.836347
-2 -16.5988 0.863677
-1.5 -16.5267 0.836347
-1 -16.5988 0.863677
-0.5 -16.5267 0.836347
0 -16.5988 0.863677
0.5 -16.5267 0.836347
1 -16.5988 0.863677
1.5 -16.5267 0.836347
2 -16.5988 0.863677
[...]
CELL_DATA 6004
SCALARS MEAN_CURVATURE float
LOOKUP_TABLE default
-0.254534
-0.232266
-0.200821
-0.165741
-0.131196
-0.0993604
-0.0708892
-0.0454465
-0.0217392
-0.000410269
0.0221546
0.0454465
0.0708892
0.0993604
0.131196
0.165741
0.200821
0.232266
0.254534
0.262671
0.254534
0.232266
0.200821
0.16533
0.131538
0.0993604
0.0708892
0.0454465
0.0221546
6.69163e-15
-0.0221546
-0.0454465
-0.0709282
-0.0993175
-0.13123
-0.165729
-0.200783
-0.232278
-0.254511
-0.262659
-0.254511
-0.232246
-0.200843
-0.1657
-0.13123
-0.0993175
-0.0708855
-0.0454865
-0.0221131
1.22548e-14
0.0221131
0.0454865
0.0708466
0.0993976
0.131188
0.1657
0.200843
0.232246
0.254511
0.262659
0.254511
0.232278
0.200783
0.16577
0.131153
0.0993547
0.0709282
0.0454044
0.0221536
4.10437e-05
-0.0221952
-0.0454443
-0.0708466
-0.0993976
-0.13117
-0.165738
-0.200811
-0.232255
-0.254518
-0.262657
-0.254518
-0.232255
-0.200811
-0.165738
-0.13117
-0.0993976
-0.0708466
-0.0454443
-0.0221952
4.10437e-05
0.0221536
0.0454044
0.0709282
0.0993547
0.131153
0.16577
0.200783
0.232278
0.254511
0.262659
0.254511
0.232246
0.200843
0.1657
0.131188
0.0993976
0.0708466
0.0454865
0.0221131
-7.89442e-15
-0.0221131
-0.0454865
-0.0708855
-0.0993175
-0.13123
-0.1657
-0.200843
-0.232246
-0.254511
-0.262659
-0.254511
-0.232278
-0.200783
-0.165729
-0.13123
-0.0993175
-0.0709282
-0.0454465
-0.0221546
2.68372e-14
0.0221546
0.0454465
0.0708892
0.0993604
0.131538
0.16533
0.200821
0.232266
0.254534
0.262671
0.254534
0.232266
0.200821
0.165741
0.131196
0.0993604
0.0708892
0.0454465
0.0221546
-0.000410269
-0.0217392
-0.0454465
-0.0708892
-0.0993604
-0.131196
-0.165741
-0.200821
-0.232266
-0.254534
-0.232266
-0.200821
-0.165741
-0.131196
-0.0993604
-0.0708892
-0.0454465
-0.0217392
-0.000410269
0.0221546
0.0454465
0.0708892
0.0993604
0.131196
0.165741
0.200821
0.232266
0.254534
0.262671
0.254534
0.232266
0.200821
0.16533
0.131538
0.0993604
0.0708892
0.0454465
0.0221546
6.69163e-15
-0.0221546
-0.0454465
-0.0709282
-0.0993175
-0.13123
-0.165729
-0.200783
-0.232278
-0.254511
-0.262659
-0.254511
-0.232246
-0.200843
-0.1657
-0.13123
-0.0993175
-0.0708855
-0.0454865
-0.0221131
1.22548e-14
0.0221131
0.0454865
0.0708466
0.0993976
0.131188
0.1657
0.200843
0.232246
0.254511
0.262659
0.254511
0.232278
0.200783
0.16577
0.131153
0.0993547
0.0709282
0.0454044
0.0221536
4.10437e-05
-0.0221952
-0.0454443
-0.0708466
-0.0993976
-0.13117
-0.165738
-0.200811
-0.232255
-0.254518
-0.262657
-0.254518
-0.232255
-0.200811
-0.165738
-0.13117
-0.0993976
-0.0708466
-0.0454443
-0.0221952
4.10437e-05
0.0221536
0.0454044
0.0709282
0.0993547
0.131153
0.16577
0.200783
0.232278
0.254511
0.262659
0.254511
0.232246
0.200843
0.1657
0.131188
0.0993976
0.0708466
0.0454865
0.0221131
-7.89442e-15
-0.0221131
-0.0454865
-0.0708855
-0.0993175
-0.13123
-0.1657
-0.200843
-0.232246
-0.254511
-0.262659
-0.254511
-0.232278
-0.200783
-0.165729
-0.13123
-0.0993175
-0.0709282
-0.0454465
-0.0221546
2.68372e-14
0.0221546
0.0454465
0.0708892
0.0993604
0.131538
0.16533
0.200821
0.232266
0.254534
0.262671
0.254534
0.232266
0.200821
0.165741
0.131196
0.0993604
0.0708892
0.0454465
0.0221546
-0.000410269
-0.0217392
-0.0454465
-0.0708892
-0.0993604
-0.131196
-0.165741
-0.200821
-0.232266
-0.254534
-0.232266
-0.200821
-0.165741
-0.131196
-0.0993604
-0.0708892
-0.0454465
-0.0217392
-0.000410269
0.0221546
0.0454465
0.0708892
0.0993604
0.131196
0.165741
0.200821
0.232266
0.254534
0.262671
0.254534
0.232266
0.200821
0.16533
0.131538
0.0993604
0.0708892
0.0454465
0.0221546
6.69163e-15
-0.0221546
-0.0454465
-0.0709282
-0.0993175
-0.13123
-0.165729
-0.200783
-0.232278
-0.254511
-0.262659
-0.254511
-0.232246
-0.200843
-0.1657
-0.13123
-0.0993175
-0.0708855
-0.0454865
-0.0221131
1.22548e-14
0.0221131
0.0454865
0.0708466
0.0993976
0.131188
0.1657
0.200843
0.232246
0.254511
0.262659
0.254511
0.232278
0.200783
0.16577
0.131153
0.0993547
0.0709282
0.0454044
0.0221536
4.10437e-05
-0.0221952
-0.0454443
-0.0708466
-0.0993976
-0.13117
-0.165738
-0.200811
-0.232255
-0.254518
-0.262657
-0.254518
-0.232255
-0.200811
-0.165738
-0.13117
-0.0993976
-0.0708466
-0.0454443
-0.0221952
4.10437e-05
0.0221536
0.0454044
0.0709282
0.0993547
0.131153
0.16577
0.200783
0.232278
0.254511
0.262659
0.254511
0.232246
0.200843
0.1657
0.131188
0.0993976
0.0708466
0.0454865
0.0221131
-7.89442e-15
-0.0221131
-0.0454865
-0.0708855
-0.0993175
-0.13123
-0.1657
-0.200843
-0.232246
-0.254511
-0.262659
-0.254511
-0.232278
-0.200783
-0.165729
-0.13123
-0.0993175
-0.0709282
-0.0454465
-0.0221546
2.68372e-14
0.0221546
0.0454465
0.0708892
0.0993604
0.131538
0.16533
0.200821
0.232266
0.254534
0.262671
0.254534
0.232266
0.200821
0.165741
0.131196
0.0993604
0.0708892
0.0454465
0.0221546
-0.000410269
-0.0217392
-0.0454465
-0.0708892
-0.0993604
-0.131196
-0.165741
-0.200821
-0.232266
-0.254534
-0.232266
-0.200821
-0.165741
-0.131196
-0.0993604
-0.0708892
-0.0454465
-0.0217392
-0.000410269
0.0221546
0.0454465
0.0708892
0.0993604
0.131196
0.165741
0.200821
0.232266
0.254534
0.262671
0.254534
0.232266
0.200821
0.16533
0.131538
0.0993604
0.0708892
0.0454465
0.0221546
6.69163e-15
-0.0221546
-0.0454465
-0.0709282
-0.0993175
-0.13123
-0.165729
-0.200783
-0.232278
-0.254511
-0.262659
-0.254511
-0.232246
-0.200843
-0.1657
-0.13123
-0.0993175
-0.0708855
-0.0454865
-0.0221131
1.22548e-14
0.0221131
0.0454865
0.0708466
0.0993976
0.131188
0.1657
0.200843
0.232246
0.254511
0.262659
0.254511
0.232278
0.200783
0.16577
0.131153
0.0993547
0.0709282
0.0454044
0.0221536
4.10437e-05
-0.0221952
-0.0454443
-0.0708466
-0.0993976
-0.13117
-0.165738
-0.200811
-0.232255
-0.254518
-0.262657
-0.254518
-0.232255
-0.200811
-0.165738
-0.13117
-0.0993976
-0.0708466
-0.0454443
-0.0221952
4.10437e-05
0.0221536
0.0454044
0.0709282
0.0993547
0.131153
0.16577
0.200783
0.232278
0.254511
0.262659
0.254511
0.232246
0.200843
0.1657
0.131188
0.0993976
0.0708466
0.0454865
0.0221131
-7.89442e-15
-0.0221131
-0.0454865
-0.0708855
-0.0993175
-0.13123
-0.1657
-0.200843
-0.232246
-0.254511
-0.262659
-0.254511
-0.232278
-0.200783
-0.165729
-0.13123
-0.0993175
-0.0709282
-0.0454465
-0.0221546
2.68372e-14
0.0221546
0.0454465
0.0708892
0.0993604
0.131538
0.16533
0.200821
0.232266
0.254534
0.262671
0.254534
0.232266
0.200821
0.165741
0.131196
0.0993604
0.0708892
0.0454465
0.0221546
-0.000410269
-0.0217392
-0.0454465
-0.0708892
-0.0993604
-0.131196
-0.165741
-0.200821
-0.232266
-0.254534
-0.232266
-0.200821
-0.165741
-0.131196
-0.0993604
-0.0708892
-0.0454465
-0.0217392
-0.000410269
0.0221546
0.0454465
0.0708892
0.0993604
0.131196
0.165741
0.200821
0.232266
0.254534
0.262671
0.254534
0.232266
0.200821
0.16533
0.131538
0.0993604
0.0708892
0.0454465
0.0221546
6.69163e-15
-0.0221546
-0.0454465
-0.0709282
-0.0993175
-0.13123
-0.165729
-0.200783
-0.232278
-0.254511
-0.262659
-0.254511
-0.232246
-0.200843
-0.1657
-0.13123
-0.0993175
-0.0708855
-0.0454865
-0.0221131
1.22548e-14
0.0221131
0.0454865
0.0708466
0.0993976
0.131188
0.1657
0.200843
0.232246
0.254511
0.262659
0.254511
0.232278
0.200783
0.16577
0.131153
0.0993547
0.0709282
0.0454044
0.0221536
4.10437e-05
-0.0221952
-0.0454443
-0.0708466
-0.0993976
-0.13117
-0.165738
-0.200811
-0.232255
-0.254518
-0.262657
-0.254518
-0.232255
-0.200811
-0.165738
-0.13117
-0.0993976
-0.0708466
-0.0454443
-0.0221952
4.10437e-05
0.0221536
0.0454044
0.0709282
0.0993547
0.131153
0.16577
0.200783
0.232278
0.254511
0.262659
0.254511
0.232246
0.200843
0.1657
0.131188
0.0993976
0.0708466
0.0454865
0.0221131
-7.89442e-15
-0.0221131
-0.0454865
-0.0708855
-0.0993175
-0.13123
-0.1657
-0.200843
-0.232246
-0.254511
-0.262659
-0.254511
-0.232278
-0.200783
-0.165729
-0.13123
-0.0993175
-0.0709282
-0.0454465
-0.0221546
2.68372e-14
0.0221546
0.0454465
0.0708892
0.0993604
0.131538
0.16533
0.200821
0.232266
0.254534
0.262671
0.254534
0.232266
0.200821
0.165741
0.131196
0.0993604
0.0708892
0.0454465
0.0221546
-0.000410269
-0.0217392
-0.0454465
-0.0708892
-0.0993604
-0.131196
-0.165741
-0.200821
-0.232266
-0.254534
-0.232266
-0.200821
-0.165741
-0.131196
-0.0993604
-0.0708892
-0.0454465
-0.0217392
-0.000410269
0.0221546
0.0454465
0.0708892
0.0993604
0.131196
0.165741
0.200821
0.232266
0.254534
0.262671
0.254534
0.232266
0.200821
0.16533
0.131538
0.0993604
0.0708892
0.0454465
0.0221546
6.69163e-15
-0.0221546
-0.0454465
-0.0709282
-0.0993175
-0.13123
-0.165729
-0.200783
-0.232278
-0.254511
-0.262659
-0.254511
-0.232246
-0.200843
-0.1657
-0.13123
-0.0993175
-0.0708855
-0.0454865
-0.0221131
1.22548e-14
0.0221131
0.0454865
0.0708466
0.0993976
0.131188
0.1657
0.200843
0.232246
0.254511
0.262659
0.254511
0.232278
0.200783
0.16577
0.131153
0.0993547
0.0709282
0.0454044
0.0221536
4.10437e-05
-0.0221952
-0.0454443
-0.0708466
-0.0993976
-0.13117
-0.165738
-0.200811
-0.232255
-0.254518
-0.262657
-0.254518
-0.232255
-0.200811
-0.165738
-0.13117
-0.0993976
-0.0708466
-0.0454443
-0.0221952
4.10437e-05
0.0221536
0.0454044
0.0709282
0.0993547
0.131153
0.16577
0.200783
0.232278
0.254511
0.262659
0.254511
0.232246
0.200843
0.1657
0.131188
0.0993976
0.0708466
0.0454865
0.0221131
-7.89442e-15
-0.0221131
-0.0454865
-0.0708855
-0.0993175
-0.13123
-0.1657
-0.200843
-0.232246
-0.254511
-0.262659
-0.254511
-0.232278
-0.200783
-0.165729
-0.13123
-0.0993175
-0.0709282
-0.0454465
-0.0221546
2.68372e-14
0.0221546
0.0454465
0.0708892
0.0993604
0.131538
0.16533
0.200821
0.232266
0.254534
0.262671
0.254534
0.232266
0.200821
0.165741
0.131196
0.0993604
0.0708892
0.0454465
0.0221546
-0.000410269
-0.0217392
-0.0454465
-0.0708892
-0.0993604
-0.131196
-0.165741
-0.200821
-0.232266
-0.254534
-0.232266
-0.200821
-0.165741
-0.131196
-0.0993604
-0.0708892
-0.0454465
-0.0217392
-0.000410269
0.0221546
0.0454465
0.0708892
0.0993604
0.131196
0.165741
0.200821
0.232266
0.254534
0.262671
0.254534
0.232266
0.200821
0.16533
0.131538
0.0993604
0.0708892
0.0454465
0.0221546
6.69163e-15
-0.0221546
-0.0454465
-0.0709282
-0.0993175
-0.13123
-0.165729
-0.200783
-0.232278
-0.254511
-0.262659
-0.254511
-0.232246
-0.200843
-0.1657
-0.13123
-0.0993175
-0.0708855
-0.0454865
-0.0221131
1.22548e-14
0.0221131
0.0454865
0.0708466
0.0993976
0.131188
0.1657
0.200843
0.232246
0.254511
0.262659
0.254511
0.232278
0.200783
0.16577
0.131153
0.0993547
0.0709282
0.0454044
0.0221536
4.10437e-05
-0.0221952
-0.0454443
-0.0708466
-0.0993976
-0.13117
-0.165738
-0.200811
-0.232255
-0.254518
-0.262657
-0.254518
-0.232255
-0.200811
-0.165738
-0.13117
-0.0993976
-0.0708466
-0.0454443
-0.0221952
4.10437e-05
0.0221536
0.0454044
0.0709282
0.0993547
0.131153
0.16577
0.200783
0.232278
0.254511
0.262659
0.254511
0.232246
0.200843
0.1657
0.131188
0.0993976
0.0708466
0.0454865
0.0221131
-7.89442e-15
-0.0221131
-0.0454865
-0.0708855
-0.0993175
-0.13123
-0.1657
-0.200843
-0.232246
-0.254511
-0.262659
-0.254511
-0.232278
-0.200783
-0.165729
-0.13123
-0.0993175
-0.0709282
-0.0454465
-0.0221546
2.68372e-14
0.0221546
0.0454465
0.0708892
0.0993604
0.131538
0.16533
0.200821
0.232266
0.254534
0.262671
0.254534
0.232266
0.200821
0.165741
0.131196
0.0993604
0.0708892
0.0454465
0.0221546
-0.000410269
-0.0217392
-0.0454465
-0.0708892
-0.0993604
-0.131196
-0.165741
-0.200821
-0.232266
-0.254534
-0.232266
-0.200821
-0.165741
-0.131196
-0.0993604
-0.0708892
-0.0454465
-0.0217392
-0.000410269
0.0221546
0.0454465
0.0708892
0.0993604
0.131196
0.165741
0.200821
0.232266
0.254534
0.262671
0.254534
0.232266
0.200821
0.16533
0.131538
0.0993604
0.0708892
0.0454465
0.0221546
6.69163e-15
-0.0221546
-0.0454465
-0.0709282
-0.0993175
-0.13123
-0.165729
-0.200783
-0.232278
-0.254511
-0.262659
-0.254511
-0.232246
-0.200843
-0.1657
-0.13123
-0.0993175
-0.0708855
-0.0454865
-0.0221131
1.22548e-14
0.0221131
0.0454865
0.0708466
0.0993976
0.131188
0.1657
0.200843
0.232246
0.254511
0.262659
0.254511
0.232278
0.200783
0.16577
0.131153
0.0993547
0.0709282
0.0454044
0.0221536
4.10437e-05
-0.0221952
-0.0454443
-0.0708466
-0.0993976
-0.13117
-0.165738
-0.200811
-0.232255
-0.254518
-0.262657
-0.254518
-0.232255
-0.200811
-0.165738
-0.13117
-0.0993976
-0.0708466
-0.0454443
-0.0221952
4.10437e-05
0.0221536
0.0454044
0.0709282
0.0993547
0.131153
0.16577
0.200783
0.232278
0.254511
0.262659
0.254511
0.232246
0.200843
0.1657
0.131188
0.0993976
0.0708466
0.0454865
0.0221131
-7.89442e-15
-0.0221131
-0.0454865
-0.0708855
-0.0993175
-0.13123
-0.1657
-0.200843
-0.232246
-0.254511
-0.262659
-0.254511
-0.232278
-0.200783
-0.165729
-0.13123
-0.0993175
-0.0709282
-0.0454465
-0.0221546
2.68372e-14
0.0221546
0.0454465
0.0708892
0.0993604
0.131538
0.16533
0.200821
0.232266
0.254534
0.262671
0.254534
0.232266
0.200821
0.165741
0.131196
0.0993604
0.0708892
0.0454465
0.0221546
-0.000410269
-0.0217392
-0.0454465
-0.0708892
-0.0993604
-0.131196
-0.165741
-0.200821
-0.232266
-0.254534
-0.232266
-0.200821
-0.165741
-0.131196
-0.0993604
-0.0708892
-0.0454465
-0.0217392
-0.000410269
0.0221546
0.0454465
0.0708892
0.0993604
0.131196
0.165741
0.200821
0.232266
0.254534
0.262671
0.254534
0.232266
0.200821
0.16533
0.131538
0.0993604
0.0708892
0.0454465
0.0221546
6.69163e-15
-0.0221546
-0.0454465
-0.0709282
-0.0993175
-0.13123
-0.165729
-0.200783
-0.232278
-0.254511
-0.262659
-0.254511
-0.232246
-0.200843
-0.1657
-0.13123
-0.0993175
-0.0708855
-0.0454865
-0.0221131
1.22548e-14
0.0221131
0.0454865
0.0708466
0.0993976
0.131188
0.1657
0.200843
0.232246
0.254511
0.262659
0.254511
0.232278
0.200783
0.16577
0.131153
0.0993547
0.0709282
0.0454044
0.0221536
4.10437e-05
-0.0221952
-0.0454443
-0.0708466
-0.0993976
-0.13117
-0.165738
-0.200811
-0.232255
-0.254518
-0.262657
-0.254518
-0.232255
-0.200811
-0.165738
-0.13117
-0.0993976
-0.0708466
-0.0454443
-0.0221952
4.10437e-05
0.0221536
0.0454044
0.0709282
0.0993547
0.131153
0.16577
0.200783
0.232278
0.254511
0.262659
0.254511
0.232246
0.200843
0.1657
0.131188
0.0993976
0.0708466
0.0454865
0.0221131
-7.89442e-15
-0.0221131
-0.0454865
-0.0708855
-0.0993175
-0.13123
-0.1657
-0.200843
-0.232246
-0.254511
-0.262659
-0.254511
-0.232278
-0.200783
-0.165729
-0.13123
-0.0993175
-0.0709282
-0.0454465
-0.0221546
2.68372e-14
0.0221546
0.0454465
0.0708892
0.0993604
0.131538
0.16533
0.200821
0.232266
0.254534
0.262671
0.254534
0.232266
0.200821
0.165741
0.131196
0.0993604
0.0708892
0.0454465
0.0221546
-0.000410269
-0.0217392
-0.0454465
-0.0708892
-0.0993604
-0.131196
-0.165741
-0.200821
-0.232266
-0.254534
-0.232266
-0.200821
-0.165741
-0.131196
-0.0993604
-0.0708892
-0.0454465
-0.0217392
-0.000410269
0.0221546
0.0454465
0.0708892
0.0993604
0.131196
0.165741
0.200821
0.232266
0.254534
0.262671
0.254534
0.232266
0.200821
0.16533
0.131538
0.0993604
0.0708892
0.0454465
0.0221546
6.69163e-15
-0.0221546
-0.0454465
-0.0709282
-0.0993175
-0.13123
-0.165729
-0.200783
-0.232278
-0.254511
-0.262659
-0.254511
-0.232246
-0.200843
-0.1657
-0.13123
-0.0993175
-0.0708855
-0.0454865
-0.0221131
1.22548e-14
0.0221131
0.0454865
0.0708466
0.0993976
0.131188
0.1657
0.200843
0.232246
0.254511
0.262659
0.254511
0.232278
0.200783
0.16577
0.131153
0.0993547
0.0709282
0.0454044
0.0221536
4.10437e-05
-0.0221952
-0.0454443
-0.0708466
-0.0993976
-0.13117
-0.165738
-0.200811
-0.232255
-0.254518
-0.262657
-0.254518
-0.232255
-0.200811
-0.165738
-0.13117
-0.0993976
-0.0708466
-0.0454443
-0.0221952
4.10437e-05
0.0221536
0.0454044
0.0709282
0.0993547
0.131153
0.16577
0.200783
0.232278
0.254511
0.262659
0.254511
0.232246
0.200843
0.1657
0.131188
0.0993976
0.0708466
0.0454865
0.0221131
-7.89442e-15
-0.0221131
-0.0454865
-0.0708855
-0.0993175
-0.13123
-0.1657
-0.200843
-0.232246
-0.254511
-0.262659
-0.254511
-0.232278
-0.200783
-0.165729
-0.13123
-0.0993175
-0.0709282
-0.0454465
-0.0221546
2.68372e-14
0.0221546
0.0454465
0.0708892
0.0993604
0.131538
0.16533
0.200821
0.232266
0.254534
0.262671
0.254534
0.232266
0.200821
0.165741
0.131196
0.0993604
0.0708892
0.0454465
0.0221546
-0.000410269
-0.0217392
-0.0454465
-0.0708892
-0.0993604
-0.131196
-0.165741
-0.200821
-0.232266
-0.254534
-0.232266
-0.200821
-0.165741
-0.131196
-0.0993604
-0.0708892
-0.0454465
-0.0217392
-0.000410269
0.0221546
0.0454465
0.0708892
0.0993604
0.131196
0.165741
0.200821
0.232266
0.254534
0.262671
0.254534
0.232266
0.200821
0.16533
0.131538
0.0993604
0.0708892
0.0454465
0.0221546
6.69163e-15
-0.0221546
-0.0454465
-0.0709282
-0.0993175
-0.13123
-0.165729
-0.200783
-0.232278
-0.254511
-0.262659
-0.254511
-0.232246
-0.200843
-0.1657
-0.13123
-0.0993175
-0.0708855
-0.0454865
-0.0221131
1.22548e-14
0.0221131
0.0454865
0.0708466
0.0993976
0.131188
0.1657
0.200843
0.232246
0.254511
0.262659
0.254511
0.232278
0.200783
0.16577
0.131153
0.0993547
0.0709282
0.0454044
0.0221536
4.10437e-05
-0.0221952
-0.0454443
-0.0708466
-0.0993976
-0.13117
-0.165738
-0.200811
-0.232255
-0.254518
-0.262657
-0.254518
-0.232255
-0.200811
-0.165738
-0.13117
-0.0993976
-0.0708466
-0.0454443
-0.0221952
4.10437e-05
0.0221536
0.0454044
0.0709282
0.0993547
0.131153
0.16577
0.200783
0.232278
0.254511
0.262659
0.254511
0.232246
0.200843
0.1657
0.131188
0.0993976
0.0708466
0.0454865
0.0221131
-7.89442e-15
-0.0221131
-0.0454865
-0.0708855
-0.0993175
-0.13123
-0.1657
-0.200843
-0.232246
-0.254511
-0.262659
-0.254511
-0.232278
-0.200783
-0.165729
-0.13123
-0.0993175
-0.0709282
-0.0454465
-0.0221546
2.68372e-14
0.0221546
0.0454465
0.0708892
0.0993604
0.131538
0.16533
0.200821
0.232266
0.254534
0.262671
0.254534
0.232266
0.200821
0.165741
0.131196
0.0993604
0.0708892
0.0454465
0.0221546
-0.000410269
-0.0217392
-0.0454465
-0.0708892
-0.0993604
-0.131196
-0.165741
-0.200821
-0.232266
-0.254534
-0.232266
-0.200821
-0.165741
-0.131196
-0.0993604
-0.0708892
-0.0454465
-0.0217392
-0.000410269
0.0221546
0.0454465
0.0708892
0.0993604
0.131196
0.165741
0.200821
0.232266
0.254534
0.262671
0.254534
0.232266
0.200821
0.16533
0.131538
0.0993604
0.0708892
0.0454465
0.0221546
6.69163e-15
-0.0221546
-0.0454465
-0.0709282
-0.0993175
-0.13123
-0.165729
-0.200783
-0.232278
-0.254511
-0.262659
-0.254511
-0.232246
-0.200843
-0.1657
-0.13123
-0.0993175
-0.0708855
-0.0454865
-0.0221131
1.22548e-14
0.0221131
0.0454865
0.0708466
0.0993976
0.131188
0.1657
0.200843
0.232246
0.254511
0.262659
0.254511
0.232278
0.200783
0.16577
0.131153
0.0993547
0.0709282
0.0454044
0.0221536
4.10437e-05
-0.0221952
-0.0454443
-0.0708466
-0.0993976
-0.13117
-0.165738
-0.200811
-0.232255
-0.254518
-0.262657
-0.254518
-0.232255
-0.200811
-0.165738
-0.13117
-0.0993976
-0.0708466
-0.0454443
-0.0221952
4.10437e-05
0.0221536
0.0454044
0.0709282
0.0993547
0.131153
0.16577
0.200783
0.232278
0.254511
0.262659
0.254511
0.232246
0.200843
0.1657
0.131188
0.0993976
0.0708466
0.0454865
0.0221131
-7.89442e-15
-0.0221131
-0.0454865
-0.0708855
-0.0993175
-0.13123
-0.1657
-0.200843
-0.232246
-0.254511
-0.262659
-0.254511
-0.232278
-0.200783
-0.165729
-0.13123
-0.0993175
-0.0709282
-0.0454465
-0.0221546
2.68372e-14
0.0221546
0.0454465
0.0708892
0.0993604
0.131538
0.16533
0.200821
0.232266
0.254534
0.262671
0.254534
0.232266
0.200821
0.165741
0.131196
0.0993604
0.0708892
0.0454465
0.0221546
-0.000410269
-0.0217392
-0.0454465
-0.0708892
-0.0993604
-0.131196
-0.165741
-0.200821
-0.232266
-0.254534
-0.232266
-0.200821
-0.165741
-0.131196
-0.0993604
-0.0708892
-0.0454465
-0.0217392
-0.000410269
0.0221546
0.0454465
0.0708892
0.0993604
0.131196
0.165741
0.200821
0.232266
0.254534
0.262671
0.254534
0.232266
0.200821
0.16533
0.131538
0.0993604
0.0708892
0.0454465
0.0221546
6.69163e-15
-0.0221546
-0.0454465
-0.0709282
-0.0993175
-0.13123
-0.165729
-0.200783
-0.232278
-0.254511
-0.262659
-0.254511
-0.232246
-0.200843
-0.1657
-0.13123
-0.0993175
-0.0708855
-0.0454865
-0.0221131
1.22548e-14
0.0221131
0.0454865
0.0708466
0.0993976
0.131188
0.1657
0.200843
0.232246
0.254511
0.262659
0.254511
0.232278
0.200783
0.16577
0.131153
0.0993547
0.0709282
0.0454044
0.0221536
4.10437e-05
-0.0221952
-0.0454443
-0.0708466
-0.0993976
-0.13117
-0.165738
-0.200811
-0.232255
-0.254518
-0.262657
-0.254518
-0.232255
-0.200811
-0.165738
-0.13117
-0.0993976
-0.0708466
-0.0454443
-0.0221952
4.10437e-05
0.0221536
0.0454044
0.0709282
0.0993547
0.131153
0.16577
0.200783
0.232278
0.254511
0.262659
0.254511
0.232246
0.200843
0.1657
0.131188
0.0993976
0.0708466
0.0454865
0.0221131
-7.89442e-15
-0.0221131