# vtk DataFile Version 3.0
Motion
ASCII
DATASET UNSTRUCTURED_GRID
POINTS 18498 float
-2.75976 -14.0015 0.400602
-2.51922 -14.0534 -0.0635979
-2.6251 -14.0287 0.334509
-2.36015 -14.0433 -1.01474
-2.49968 -13.9645 1.64195
-2.23549 -14.0889 -0.537973
-2.25334 -14.0961 0.0775881
-2.39196 -14.0713 0.235904
-2.41171 -14.0555 0.748699
-2.30682 -14.0509 1.11767
-2.34446 -14.0038 1.54566
-2.06335 -14.0759 1.20247
-2.0534 -14.088 -1.12305
-2.07992 -14.1092 -0.654464
-2.08645 -14.0296 1.64784
-1.92148 -14.087 -1.31241
-1.95182 -14.1414 -0.183118
-1.99078 -14.1308 0.322958
-1.80538 -14.1209 -1.0534
-1.80919 -14.1541 -0.392696
-1.81668 -14.1245 0.951914
-1.9576 -14.012 1.90307
-1.68128 -14.1014 -1.43107
-1.6841 -14.1737 -0.0137818
-1.69166 -14.1599 0.651987
-1.67529 -14.0426 1.94818
-1.5469 -14.1418 -1.15874
-1.50338 -14.1881 -0.584161
-1.55541 -14.1908 -0.143487
-1.56316 -14.1532 1.03587
-1.54993 -14.0946 1.6634
-1.44373 -14.1146 -1.56712
-1.43673 -14.2046 0.328413
-1.43692 -14.1807 0.841997
-1.41599 -14.0654 2.01019
-1.37812 -13.9817 2.55203
-1.20626 -14.1086 -1.80649
-1.31508 -14.1506 -1.34887
-1.26479 -14.1997 -0.773209
-1.34993 -14.2101 -0.416885
-1.3188 -14.2175 0.119949
-1.30975 -14.1618 1.26358
-1.30205 -14.1049 1.80425
-1.16986 -14.0524 2.23897
-1.19447 -14.2208 0.408859
-1.18523 -14.1889 1.03891
-1.06364 -14.1437 -1.60478
-1.03611 -14.2058 -0.932317
-1.12845 -14.2198 -0.558359
-1.08926 -14.2334 0.0868744
-1.04481 -14.171 1.36378
-1.03714 -14.0914 2.02318
-0.939225 -14.1075 -1.96894
-0.899748 -14.2299 -0.638029
-0.856821 -14.247 0.0402175
-0.953991 -14.2365 0.391162
-0.918784 -14.2061 1.03802
-0.89675 -14.0436 2.38508
-0.804629 -14.1574 -1.63458
-0.792682 -14.2177 -0.97613
-0.679796 -14.1219 -1.95793
-0.645674 -14.2447 -0.617749
-0.621291 -14.2585 0.0549862
-0.725372 -14.2485 0.374851
-0.683677 -14.2155 1.06665
-0.779919 -14.1835 1.37887
-0.765555 -14.1007 2.06653
-0.64287 -14.0408 2.47367
-0.551171 -14.1696 -1.6171
-0.528995 -14.232 -0.935372
-0.478301 -14.2591 0.411311
-0.460336 -14.2235 1.08678
-0.561631 -14.1898 1.42225
-0.535188 -14.0979 2.14161
-0.425786 -14.1298 -1.96381
-0.419646 -14.0478 2.48238
-0.278624 -14.1749 -1.63354
-0.261683 -14.2377 -0.944463
-0.38667 -14.255 -0.593011
-0.360359 -14.2684 0.0809377
-0.322659 -14.1977 1.42715
-0.308412 -14.1138 2.10338
-0.1472 -14.1314 -1.9962
-0.135825 -14.2595 -0.581944
-0.117569 -14.2737 0.111942
-0.217115 -14.2653 0.423372
-0.197381 -14.2302 1.09411
-0.182853 -14.0677 2.41842
-0.000483614 -14.2563 -0.719867
-0.0704591 -14.1994 1.4582
-0.0701782 -14.1208 2.10627
0.118728 -14.1177 -2.13375
0.0108272 -14.1672 -1.75188
0.0717977 -14.2274 -1.18704
0.0970962 -14.2765 -0.170583
0.0245188 -14.2744 0.307297
0.10096 -14.2526 0.818742
0.0550524 -14.2146 1.32133
0.0510236 -14.0866 2.33991
0.133224 -14.1506 1.88575
0.339781 -14.1155 -2.12998
0.248877 -14.1534 -1.87755
0.306489 -14.2159 -1.32276
0.237311 -14.2404 -1.01412
0.308774 -14.2675 -0.424013
0.240841 -14.2746 -0.0476504
0.318058 -14.2619 0.567613
0.250754 -14.2419 0.956126
0.318222 -14.184 1.58194
0.246599 -14.1305 2.00898
0.293434 -14.0224 2.65592
0.457707 -14.1623 -1.74937
0.435737 -14.2208 -1.23319
0.548015 -14.2421 -0.720397
0.49023 -14.2644 -0.219855
0.580067 -14.2599 0.320091
0.475828 -14.2503 0.731196
0.558756 -14.2074 1.28364
0.468454 -14.161 1.74588
0.53595 -14.0692 2.34674
0.432553 -13.9841 2.82974
0.56686 -14.1237 -1.98583
0.687686 -14.1633 -1.62168
0.69081 -14.2233 -0.872427
0.682193 -14.0305 2.52945
0.814437 -14.1154 -1.94368
0.813712 -14.2317 -0.541682
0.817054 -14.2087 1.05715
0.718193 -14.1804 1.4716
0.774135 -14.0953 2.11654
0.937413 -14.1516 -1.59069
0.933564 -14.208 -0.937952
1.05072 -14.1945 1.02961
0.958895 -14.172 1.3621
0.997568 -14.089 2.06618
0.911669 -14.0405 2.40618
1.06972 -14.1026 -1.92142
1.06257 -14.2176 -0.596313
1.00225 -14.2283 0.341281
1.1937 -14.1405 -1.52707
1.1904 -14.1991 -0.854697
1.1791 -14.1556 1.40676
1.21972 -14.0705 2.07089
1.13001 -14.0265 2.39781
1.36496 -14.0454 -2.20183
1.32489 -14.1105 -1.7133
1.3177 -14.2073 -0.471302
1.33736 -14.213 0.147906
1.23723 -14.2145 0.427352
1.27813 -14.1766 1.07926
1.3758 -14.0124 2.35718
1.50937 -14.0082 -2.33506
1.444 -14.1504 -1.23693
1.44011 -14.1886 -0.667302
1.46139 -14.1955 0.494732
1.50234 -14.1616 1.05826
1.41921 -14.1412 1.36334
1.47627 -14.062 1.97714
1.59646 -14.0354 -2.07906
1.57115 -14.1124 -1.46946
1.56855 -14.1887 -0.229571
1.57016 -14.1898 0.313255
1.63663 -14.0207 2.14672
1.69243 -14.1282 -1.11919
1.69371 -14.1663 -0.448935
1.69235 -14.1584 0.753541
1.64776 -14.1348 1.21552
1.72499 -14.0731 1.69019
1.80876 -14.082 -1.45144
1.84014 -14.1547 -0.151098
1.92094 -14.1401 0.421488
1.94082 -14.087 -1.183
1.85643 -14.1327 0.804695
1.97974 -14.0765 1.35032
1.89291 -14.0405 1.77383
2.18661 -14.0258 -1.453
2.22459 -14.0707 -0.820965
2.1116 -14.1069 0.548697
2.21654 -14.0554 1.0777
2.1492 -14.0323 1.49611
2.41665 -14.0262 -0.987333
2.34472 -14.0583 -0.632233
2.62943 -14.0177 -0.394829
2.66688 -14.0071 0.67028
2.79444 -13.9946 -0.337739
2.87221 -13.9839 0.2247
2.80091 -13.9806 0.722095
-4.58471 -13.4874 0.960094
-4.41167 -13.5654 -0.467063
-4.50707 -13.545 -0.0436736
-4.47943 -13.5386 0.634981
-4.27843 -13.6124 -0.16184
-4.239 -13.6182 0.551371
-4.34461 -13.5648 0.924802
-4.32666 -13.5125 1.57839
-4.14759 -13.6171 -1.08674
-4.16754 -13.6426 -0.46178
-4.18965 -13.526 1.8247
-4.04566 -13.689 -0.0179317
-4.02987 -13.6811 0.612736
-4.11232 -13.6405 0.882099
-4.08092 -13.6006 1.50185
-3.93008 -13.6327 -1.61163
-3.98488 -13.6614 -1.15502
-3.88965 -13.717 -0.553977
-3.93048 -13.7191 -0.0418459
-3.91462 -13.6972 0.959133
-3.8708 -13.6603 1.52083
-3.95465 -13.6042 1.79418
-3.90302 -13.5404 2.32137
-3.76357 -13.6706 -1.66527
-3.66345 -13.7431 -1.18418
-3.73472 -13.7607 -0.529504
-3.66595 -13.7892 0.0496141
-3.666 -13.7397 1.22389
-3.73178 -13.6763 1.71859
-3.65443 -13.6136 2.26975
-3.51638 -13.7875 -1.0953
-3.53586 -13.774 1.22159
-3.46546 -13.6833 -2.12839
-3.44436 -13.7729 -1.49269
-3.44522 -13.8466 -0.424034
-3.52351 -13.8308 0.0661971
-3.46855 -13.8308 0.674963
-3.44281 -13.7349 1.8129
-3.4956 -13.638 2.36636
-3.40652 -13.5537 2.91523
-3.26354 -13.6278 -2.74203
-3.33561 -13.6958 -2.27236
-3.22813 -13.7939 -1.79111
-3.28792 -13.8311 -1.3296
-3.1992 -13.8878 -0.847656
-3.28447 -13.8887 -0.339483
-3.21546 -13.9078 0.212492
-3.32124 -13.8658 0.736707
-3.25272 -13.8441 1.26987
-3.30698 -13.7701 1.79945
-3.25141 -13.5908 2.9201
-3.20466 -13.7103 2.35777
-2.99033 -13.6573 -2.88273
-3.11283 -13.6957 -2.56135
-3.10447 -13.7988 -1.94512
-3.06204 -13.939 0.346481
-3.01164 -13.9303 0.914153
-3.09654 -13.8774 1.31333
-3.01475 -13.8392 1.81658
-3.06861 -13.7461 2.33144
-2.84515 -13.7582 -2.51428
-2.86612 -13.8628 -1.82076
-3.00295 -13.865 -1.57298
-2.95172 -13.9685 -0.0183805
-2.96911 -13.6657 2.87153
-3.02449 -13.5473 3.35446
-2.70429 -14.0107 -0.498876
-2.78954 -13.978 -0.810116
-2.79983 -14.0001 0.0225627
-2.77692 -13.9446 1.3265
-2.86125 -13.9612 0.927331
-2.84553 -13.8755 1.81656
-2.75775 -13.8267 2.26013
-2.82748 -13.7101 2.80022
-2.7277 -13.6254 3.27845
-2.66357 -13.6584 -3.20655
-2.70562 -13.7539 -2.6993
-2.74567 -13.9358 -1.39946
-2.61645 -13.9819 1.25772
-2.53498 -13.9184 -1.95381
-2.56899 -13.8452 -2.3804
-2.60384 -13.954 -1.52356
-2.50176 -14.0222 -0.954286
-2.57237 -13.8784 2.15429
-2.58321 -13.6957 3.09053
-2.51176 -13.6731 -3.26287
-2.45811 -13.778 -2.81737
-2.36438 -13.9565 -1.9161
-2.49761 -13.8321 2.50645
-2.48902 -13.6093 3.51404
-2.21856 -13.7095 -3.31147
-2.32593 -13.8026 -2.811
-2.26621 -13.9079 -2.33633
-2.29162 -14.0132 -1.54631
-2.35961 -13.8581 2.48127
-2.34795 -13.6632 3.39906
-2.25398 -13.5312 3.94557
-2.14044 -14.0376 -1.53812
-2.23121 -13.983 1.86782
-2.25442 -13.9183 2.24422
-2.06615 -13.7593 -3.21041
-2.01667 -13.8713 -2.74992
-2.05635 -13.9999 -1.94789
-2.10936 -13.9269 -2.3763
-2.08341 -13.7075 3.38932
-2.11869 -13.5525 3.94355
-1.9518 -13.6481 -3.70336
-1.92657 -14.0268 -1.8669
-1.99567 -13.9336 2.405
-1.88961 -13.8696 2.80331
-1.9502 -13.7314 3.37115
-1.85907 -13.5979 3.91744
-1.79249 -13.692 -3.61669
-1.74899 -13.8414 -3.04355
-1.85881 -13.9096 -2.66973
-1.82173 -13.992 -2.21512
-1.72894 -13.873 2.88763
-1.69254 -14.0327 -2.03829
-1.63462 -13.9549 2.54432
-1.64921 -13.7516 3.46635
-1.71874 -13.6147 3.92832
-1.59309 -13.8811 -2.94627
-1.57372 -13.9899 -2.39561
-1.45929 -14.0315 -2.19678
-1.44353 -13.6928 -3.78151
-1.46276 -13.8248 -3.26858
-1.4714 -13.9233 2.80138
-1.48894 -13.7258 3.63802
-1.43079 -13.5694 4.20246
-1.26531 -13.6429 -4.0207
-1.33862 -13.8882 -3.06113
-1.35452 -13.986 -2.53998
-1.23015 -14.0271 -2.36795
-1.27227 -13.5132 4.42701
-1.15428 -13.7569 -3.64701
-1.20836 -13.8701 -3.20037
-1.13107 -13.9594 -2.79339
-1.14295 -13.8759 3.15498
-1.2383 -13.7788 3.5312
-1.16327 -13.6329 4.07741
-0.928282 -13.6926 -3.9218
-1.01317 -13.7875 -3.56292
-1.01019 -13.9406 -2.91478
-0.924837 -14.0052 -2.60771
-0.874856 -13.9342 2.99249
-0.977693 -13.8537 3.31001
-0.927773 -13.7151 3.86517
-1.01801 -13.5914 4.25637
-0.789138 -13.792 -3.58943
-0.788671 -13.9515 -2.92347
-0.805227 -13.6452 4.12259
-0.678739 -13.7007 -3.93489
-0.678226 -14.0184 -2.60805
-0.633219 -13.916 3.12324
-0.73401 -13.8665 3.32351
-0.714301 -13.7161 3.89845
-0.548149 -13.804 -3.58047
-0.548103 -13.9622 -2.9196
-0.495655 -13.8408 3.46683
-0.613786 -13.6034 4.2796
-0.528803 -13.2972 5.15532
-0.426584 -13.71 -3.93437
-0.424289 -14.026 -2.61619
-0.389765 -13.9154 3.15803
-0.495931 -13.6786 4.04825
-0.365384 -13.594 4.34127
-0.387421 -13.4383 4.8074
-0.295188 -13.8106 -3.58296
-0.292938 -13.9685 -2.92564
-0.263559 -13.8599 3.40959
-0.175456 -13.7145 -3.93769
-0.163011 -14.0287 -2.63593
-0.167882 -13.9462 3.04897
-0.238902 -13.7007 4.01141
-0.0441365 -13.8126 -3.58909
-0.0339416 -13.969 -2.94464
-0.0424139 -13.9062 3.23826
-0.0132442 -13.7626 3.79318
-0.114055 -13.6434 4.20572
0.0746533 -13.7147 -3.94205
0.0897713 -14.0221 -2.68678
0.0638166 -13.9935 2.84133
0.20519 -13.8109 -3.59193
0.210113 -13.9619 -2.98112
0.192852 -13.9494 3.03411
[...]
CELL_DATA 9251
SCALARS MEAN_CURVATURE float
LOOKUP_TABLE default
-0.0948487
-0.0653734
-0.0759989
-0.107745
-0.0685239
-0.196403
-0.155482
-0.0701632
-0.0526349
-0.0763917
-0.0963593
0.00293872
-0.101423
-0.0512792
-0.0852359
-0.062259
-0.0717551
-0.025686
-0.0744528
-0.0797328
-0.0807478
-0.140403
-0.0965501
-0.0484378
-0.0865572
-0.0927035
-0.028289
-0.0788054
-0.0731852
-0.0802514
-0.0646146
-0.074611
-0.0659853
-0.068276
-0.0841092
-0.0498137
-0.0853026
-0.0434978
-0.0481859
-0.0682955
-0.0728898
-0.0570233
-0.0549697
-0.0691705
-0.0805721
-0.0607778
-0.0579587
-0.0444249
-0.070242
-0.0640957
-0.0368788
-0.102374
-0.0602361
-0.0656708
-0.0684157
-0.127368
-0.113937
-0.0921939
-0.073618
-0.103489
-0.0714732
-0.0817534
-0.0497712
-0.173109
-0.131989
-0.11683
-0.0830804
-0.0669245
-0.0604091
-0.0454327
-0.0560185
-0.0486154
-0.0941683
-0.0636021
-0.040463
0.00730568
-0.0728482
-0.0646051
-0.0623623
0.0716606
-0.0589119
-0.0567066
-0.0827872
-0.0392485
-0.0909203
-0.145151
-0.0925201
-0.206562
-0.109874
-0.0619593
-0.0577548
-0.0608794
-0.142592
-0.142327
-0.102149
-0.0918363
-0.0506358
-0.0688802
-0.0600201
-0.109944
-0.0639261
-0.0770802
-0.068225
-0.118199
-0.139359
-0.114512
-0.219012
-0.175166
0.0133274
-0.0192584
-0.184119
-0.134516
-0.0725449
-0.0757065
-0.0258861
-0.0355801
-0.0349522
-0.0339101
-0.0967305
-0.0863982
-0.122435
-0.31146
-0.114982
-0.0607658
-0.0695683
-0.0333731
-0.0959109
0.126755
-0.086893
-0.0154876
-0.0939952
-0.0475445
-0.0733835
-0.0430856
-0.120521
-0.0807899
-0.0920271
-0.0728757
-0.0534748
-0.0852689
-0.0981886
-0.116179
-0.0772225
-0.0782955
-0.0598397
-0.0185837
-0.118087
-0.103596
-0.106075
-0.0221263
-0.0775986
-0.0699343
-0.0568516
-0.0251316
-0.0527634
-0.0544232
-0.0744867
-0.190357
-0.081501
-0.144518
-0.0735095
0.0131527
-0.103061
-0.112687
-0.0643336
-0.0333459
-0.0839309
-0.0978606
-0.0923864
-0.0895879
-0.148655
-0.033038
-0.0443668
-0.0939484
-0.0536505
-0.0203054
-0.111861
-0.0982976
-0.0401801
-0.0985319
-0.125927
-0.063427
-0.0426693
-0.128299
-0.0607123
-0.0951274
-0.0703748
-0.0714396
-0.0829131
-0.078739
-0.128396
-0.0700404
-0.0830933
-0.171201
-0.0601481
-0.0627034
-0.0561056
-0.0233358
-0.0625838
-0.0800714
-0.0644823
-0.0657873
-0.0576826
-0.175113
-0.0644538
-0.0789042
-0.0988572
-0.0669224
-0.066066
-0.0215666
-0.0780179
-0.040159
-0.0896859
-0.0769441
-0.101275
-0.0669868
-0.0714446
-0.0650254
-0.0667005
-0.0699653
-0.0636252
-0.048123
-0.066892
-0.051659
-0.0746115
-0.0538176
-0.0792454
-0.0666869
-0.0879647
-0.0405866
-0.0788318
-0.0714428
-0.117409
-0.0376994
-0.0381602
-0.0294102
-0.0917621
-0.0661491
-0.0815792
-0.113474
-0.0523218
-0.155137
-0.094268
-0.0641169
-0.053623
-0.31193
-0.142276
0.189219
0.00449183
-0.0375342
-0.0328285
-0.130668
-0.0738248
-0.19692
-0.0996488
-0.157015
-0.0971296
-0.0881963
0.000297575
-0.111495
-0.106975
-0.0986836
-0.055167
-0.0078266
-0.0636975
-0.0615065
-0.129256
-0.0803257
-0.0713196
-0.107952
-0.110897
-0.081026
-0.0600151
-0.0830768
-0.083086
-0.044236
-0.0275706
-0.0857025
-0.0680088
-0.105424
-0.10293
-0.0115166
-0.0564095
-0.0900436
-0.00510553
-0.119801
-0.0488723
-0.187948
-0.113623
-0.0382027
0.00245291
-0.0651624
-0.051108
-0.0561297
-0.0397453
-0.0871345
-0.0802734
-0.0764439
-0.10008
-0.0933179
-0.0350809
-0.108607
-0.0240326
-0.048471
-0.0187258
-0.114804
-0.140645
-0.0231255
-0.0884664
-0.0673986
-0.0996932
-0.118963
-0.0653905
-0.0469913
-0.102117
-0.11206
-0.0378341
-0.0756193
-0.0457564
-0.145992
-0.0880228
-0.0185337
-0.0761486
-0.0334219
-0.130303
-0.135674
-0.0533805
-0.0609229
-0.0909725
-0.0911918
-0.065523
-0.118575
-0.0677763
-0.0419642
-0.0502505
-0.0997994
-0.107093
-0.061497
-0.0597509
-0.141913
-0.072007
-0.0777232
-0.136204
-0.082756
-0.134173
-0.155958
-0.0765217
0.0858945
-0.0888861
-0.118393
-0.0750445
-0.106776
-0.114378
-0.113162
-0.0634476
-0.0564145
-0.0396094
-0.0597
-0.0730724
-0.121196
-0.119134
-0.108664
-0.0519258
0.00352918
-0.0928534
-0.0708246
-0.0784628
-0.0763143
-0.109246
-0.0933656
-0.0751548
-0.168939
-0.0581901
-0.149038
-0.0776794
0.0300162
-0.139477
-0.0534577
0.058677
-0.0541414
-0.163747
-0.0588841
-0.140387
-0.143359
-0.0803987
-0.08202
-0.0537206
-0.091368
-0.06699
-0.0375301
-0.148777
-0.0656568
-0.0650532
-0.147632
-0.066565
-0.074516
-0.130716
0.0718954
-0.0687379
-0.0807636
-0.122703
-0.0440624
-0.0740386
-0.0868741
-0.0463147
-0.0546185
-0.0815355
-0.104511
-0.0894002
-0.0576326
-0.0988924
-0.0184714
-0.0521168
-0.0865095
-0.0718279
-0.0947657
-0.0894434
-0.0538455
-0.116337
-0.0791128
-0.080985
-0.101843
-0.0595545
-0.142004
-0.0550656
-0.0590823
-0.0468027
-0.0429156
-0.102705
-0.0767348
-0.132611
-0.113647
-0.0914035
-0.0762406
-0.159952
-0.0737719
-0.14147
-0.0624017
0.220878
-0.109448
-0.0628066
-0.0770395
-0.144138
-0.174336
-0.0685068
-0.076297
-0.0730415
-0.0984346
-0.0504984
-0.0433215
-0.0985324
-0.0431692
-0.0498235
-0.0516241
-0.0569886
-0.0459109
-0.0962724
-0.0604558
-0.0779042
-0.0907533
-0.0771078
-0.0855509
-0.0816702
-0.0871987
-0.0776977
-0.0520375
-0.0802481
-0.0794055
-0.0837749
-0.0919226
-0.0786986
-0.0614396
-0.111614
-0.0605622
-0.0623587
-0.0625183
-0.0535472
-0.0773124
-0.1086
-0.113191
-0.0454459
-0.0669626
-0.087801
-0.0643937
-0.0766372
-0.159633
-0.191972
-0.0666247
0.0872708
-0.0571896
-0.0415135
-0.0922573
-0.0470523
-0.107919
-0.109731
-0.161306
-0.0638968
-0.0819026
-0.12314
-0.0603675
-0.0617773
-0.0747414
-0.0865347
-0.0605289
-0.0461757
-0.0298866
-0.124182
-0.137919
-0.109569
-0.0840069
-0.118101
-0.131847
0.0507687
-0.0561011
-0.0951667
-0.0726919
-0.0960757
-0.0105383
-0.12303
-0.0588017
-0.136596
-0.00576254
-0.0752434
-0.146277
-0.0855723
-0.0557513
-0.0927773
-0.0572071
-0.0700699
-0.087016
-0.123136
-0.108231
-0.0346435
-0.0885183
-0.0668047
-0.185386
-0.0603432
-0.210216
-0.109577
0.00267295
0.0365387
-0.0586583
-0.0237794
-0.0153031
-0.112186
-0.0941644
-0.218723
-0.0816031
-0.239863
-0.0646226
-0.091145
-0.0330456
-0.0817194
-0.0659389
-0.0365605
-0.0659505
-0.107148
-0.170934
-0.0607076
-0.0464106
-0.105313
-0.130148
-0.152091
-0.0925608
-0.147918
0.0668211
-0.0939536
-0.113859
-0.169734
-0.0618012
-0.120137
-0.103424
-0.0787556
-0.0755647
-0.114064
-0.0746259
-0.155992
-0.0726275
-0.0767525
0.188221
-0.169958
-0.0791674
-0.0736786
-0.0651985
-0.107722
-0.0665193
-0.0859648
-0.0745685
-0.0414298
-0.0734025
-0.0949192
-0.0173483
-0.128984
-0.168431
-0.148507
-0.179032
-0.0948416
-0.0695623
0.0111436
-0.126167
-0.0980452
-0.179335
-0.0963523
-0.0368341
-0.0985853
-0.132794
-0.064897
-0.108
-0.0139083
-0.0696958
-0.0229368
-0.102179
-0.0731336
-0.0547774
-0.0851519
-0.115311
-0.22178
0.184925
-0.0267112
-0.0549828
-0.138386
-0.0618536
-0.104807
-0.0770169
-0.0686673
-0.100722
-0.080919
-0.11058
-0.0217618
-0.111462
-0.0421908
0.0217486
-0.0494974
-0.0393029
-0.106582
-0.098063
-0.142057
-0.0342572
-0.116465
-0.0670219
-0.0807119
-0.0999859
-0.0413036
-0.0813784
-0.0621004
-0.116283
-0.132224
-0.142964
-0.060258
-0.0522299
-0.101427
-0.0528249
-0.0713008
-0.0959079
-0.0502131
-0.0168595
-0.0468182
-0.0812383
-0.0834787
-0.141144
-0.108437
-0.0992338
-0.159298
-0.11381
-0.115682
0.0797041
-0.110073
-0.0830135
-0.0800606
-0.0788536
0.00821347
0.112859
-0.0606098
-0.104249
-0.0516465
-0.0731678
-0.129481
-0.0673462
-0.11013
-0.095078
-0.0599754
-0.111168
-0.11819
-0.119983
-0.0915252
-0.0950909
-0.0668926
-0.060068
-0.00543586
-0.0209613
-0.148695
-0.0945945
-0.0521745
-0.100521
-0.0383982
-0.0437094
-0.0691469
-0.0591109
-0.0512047
-0.08261
-0.152515
-0.128517
-0.0843691
-0.0652687
-0.0703402
-0.0555223
-0.0622579
-0.0688763
-0.0455528
-0.0605215
-0.0588813
-0.0683573
-0.0485583
-0.0862264
-0.0735712
-0.0966112
-0.117129
-0.044001
-0.0337318
-0.17952
-0.123848
-0.162665
-0.104644
-0.111808
-0.0266052
-0.106794
-0.102026
-0.104177
-0.0102248
-0.015311
-0.152748
-0.162551
-0.0728999
-0.133148
-0.053507
-0.0957899
-0.0674469
-0.013727
0.0487644
-0.180774
-0.0509008
-0.181424
-0.0847453
-0.0620458
-0.0337042
-0.0803307
-0.0957302
-0.0702262
-0.175689
-0.0638879
-0.0623676
-0.0805934
-0.0797057
-0.0547997
-0.0814118
-0.0616303
-0.101798
-0.0674406
-0.0694143
-0.0401267
-0.0476022
-0.0706497
-0.0788758
-0.093109
-0.133675
-0.0660031
-0.0644739
0.0431331
-0.104393
-0.0661619
-0.12124
-0.0771214
-0.0732127
-0.0410643
-0.189111
-0.158543
0.114909
-0.0462396
-0.0675138
-0.041476
-0.175112
-0.0925746
-0.0838593
-0.0495138
-0.0838057
-0.0907147
-0.0291326
-0.0558641
-0.07125
-0.0519487
-0.0918676
-0.0982292
-0.069834
-0.0572741
-0.068941
-0.0304036
-0.15655
-0.159701
-0.0750175
-0.0215699
-0.114676
-0.0904333
-0.133534
-0.106364
-0.154337
-0.0989597
-0.000534516
-0.131737
-0.0781535
-0.127781
-0.0912511
-0.00494163
-0.115717
-0.0486822
-0.0671569
-0.054754
-0.0626635
-0.155353
-0.0584102
-0.109595
-0.0972808
-0.0642349
-0.0406565
-0.0817763
-0.0599707
-0.119042
-0.0217234
-0.149813
-0.0708753
-0.0254081
-0.0862543
-0.0807769
-0.116839
-0.0741072
-0.113438
-0.0834009
-0.0520726
-0.100335
-0.0583937
-0.0242204
-0.0908212
-0.118311
-0.071259
-0.147864
-0.0762414
-0.013598
-0.0702455
0.0209211
-0.063113
-0.0449567
-0.0703671
-0.0880199
-0.143092
-0.0671507
-0.13006
-0.0993488
-0.123096
-0.0534183
-0.0627785
-0.0880202
-0.0775601
-0.0191442
-0.0974078
-0.0611442
-0.100446
0.0582339
-0.0505156
-0.0753718
-0.071908
-0.0749068
-0.115023
-0.129217
-0.110261
-0.0554387
-0.105066
-0.09937
-0.0899156
-0.0990641
-0.0680434
-0.112344
-0.0559717
-0.0713836
-0.0411033
-0.0427163
-0.173238
-0.05286
-0.0545944
-0.111592
-0.0544457
-0.0519212
-0.116187
-0.0764863
-0.0838065
-0.093366
-0.0735972
-0.091708
-0.0332252
-0.0507867
-0.088655
-0.0297576
-0.0414687
-0.0945056
-0.0794066
-0.0878397
-0.0746692
-0.070584
-0.119397
-0.013367
0.0116424
-0.0822423
-0.0629165
-0.233646
-0.0952804
-0.0571574
-0.279623
-0.0405215
0.0431299
-0.085203
-0.0891374
-0.0607966
-0.125811
-0.0852712
-0.0521826
-0.0184243
-0.119557
-0.0808856
-0.0753061
-0.0706822
-0.0711132
-0.0724108
-0.0595186
0.0078558
-0.0845607
-0.116838
-0.0685684
-0.0773929
-0.0511406
-0.0686609
-0.0637327
-0.0645175
-0.0811118
-0.097904
-0.0784549
-0.0782951
-0.0563632
-0.0732859
-0.0661565
-0.0757831
-0.0875091
-0.0801119
-0.0218545
-0.0263582
-0.0807198
-0.0991081
-0.0776522
-0.0810364
-0.086953
-0.0707493
-0.164128
0.125769
-0.0636936
-0.0633501
-0.0756697
-0.130501
-0.0789961
-0.0455818
-0.0527601
-0.0944676
-0.0781349
-0.13741
-0.0714328
-0.0571222
-0.0623957
-0.0869207
-0.119807
0.0751785
-0.178643
-0.0633041
-0.0975357
-0.0343603
-0.0254446
-0.0768633
-0.108069
-0.11174
-0.10357
-0.0666474
-0.0551989
-0.0201334
-0.0650151
-0.0730295
-0.0519939
-0.0388073
-0.0516698
-0.0832202
-0.0874763
-0.0855938
-0.131302
-0.0791738
-0.0772013
-0.0604425
-0.0610149
-0.0903495
-0.0733816
-0.0750927
-0.0569866
-0.0913059
-0.0526342
-0.0647125
-0.0668129
-0.0213399
-0.101833
-0.0877942
-0.0792107
-0.0657321
-0.0695617
-0.0841437
-0.0916556
-0.0519302
-0.0624319
-0.0898892
-0.0484298
-0.0572936
-0.0600897
-0.0961785
-0.0832663
-0.171711
-0.0991722
-0.0314671
-0.0200501
-0.0458541
-0.101958
-0.130367
-0.0903624
-0.114142
-0.110083
-0.108117
-0.0786707
0.0325145
0.139885
-0.0539708
-0.0948545
-0.0881467
-0.120374
-0.133795
-0.0938066
-0.138285
-0.157892
-0.185734
-0.121378
-0.10271
-0.042128
-0.078163
-0.0593198
-0.0675566
-0.0573028
-0.0857405
-0.0771867
-0.0948129
-0.0638247
-0.054185
0.0518134
-0.0805122
-0.16489
-0.0881163
-0.125669
-0.155508
-0.103229
-0.102905
-0.0839105
-0.0141018
-0.0279706
-0.0789592
-0.12522
-0.165508
-0.116272
-0.130021
-0.177823
-0.0263172
-0.0302967
-0.0856306
-0.0980036
-0.0576848
-0.0638965
-0.0390279
-0.0570643
-0.132298
-0.150803
-0.0836397
-0.0450646
-0.00389465
0.0460561
-0.111989
-0.13104
-0.0857844
-0.0342152
0.00597905
-0.0740194
-0.0739529
-0.12954
-0.12631
-0.0540211
-0.0717585
-0.0747282
0.0479916
-0.0579478
-0.060569
-0.0854342
-0.099695
-0.0805068
-0.0859577
-0.0724205
-0.211104
-0.0780797
-0.0908754
-0.101862
-0.0719603
-0.113809
-0.123709
-0.107601
-0.0643906
-0.032913
-0.035481
-0.0986502
-0.0882075
-0.056969
-0.0938364
-0.0722264
-0.0722953
-0.0838255
-0.0679359
-0.0871779
-0.0679952
-0.0687351
-0.0753273
-0.0518532
-0.0812938
-0.104322
-0.0636305
-0.0551534
-0.104353
-0.116935
-0.0172315
-0.0887456
-0.104363
-0.0855135
-0.0762548
-0.108177
-0.0864971
-0.0798831
-0.0424306
-0.119576
-0.0283774
0.0599948
-0.0743638
-0.153448
-0.0892083
-0.0578555
-0.089219
-0.0638759
-0.0913387
-0.124363
-0.023272
-0.0252272
-0.0561098
-0.114418
-0.0447845
-0.122375
-0.117532
-0.112632
-0.1081
-0.0158103
-0.0597887
-0.0790166
-0.123148
-0.0370415
-0.0816244
-0.123535
-0.10716
-0.0419247
-0.18053
-0.026893
-0.114072
-0.0626086
-0.0804911
-0.0485974
-0.0577213
-0.0746658
-0.10668
-0.0460309
-0.104559
-0.0791683
-0.0818831
-0.136523
-0.05059
-0.0459962
-0.0689888
-0.0568551
-0.075658
-0.116032
-0.0902641
-0.0515371
-0.073415
-0.0500038
-0.0204244
-0.140673
-0.0418768
-0.0504529
-0.0634679
-0.0551618
-0.0774512
-0.134029
-0.0889217
-0.113339
-0.0763562
-0.0724762
-0.0496824
-0.0829963
-0.0788628
-0.0166446
-0.081936
-0.158837
-0.105468
-0.221713
-0.119328
-0.0861
-0.0435439
-0.179889
-0.0755744
-0.0562335
-0.0518796
-0.102433
-0.0666348
-0.0898373
0.0912353
-0.083541
-0.147159
0.0405632
-0.0839752
-0.108602
0.00420254
-0.108333
-0.108146
-0.0539715
-0.126081
-0.108321
-0.0304815
-0.0676455
-0.0639752
-0.109172
-0.0678489
-0.0604694
-0.0315689
-0.0508933
-0.0799091
-0.036878
-0.066936
-0.0988219
-0.0789183
-0.123132
-0.0804716
-0.0818619
-0.0635637
-0.13258
-0.156598
-0.0871015
-0.158452
-0.0866436
-0.105638
-0.0459025
-0.0684714
-0.0612496
-0.106252
-0.135784
-0.135066
-0.0489312
0.0621578
-0.053419
-0.123371
-0.106337
-0.180733
-0.0684947
-0.042757
-0.0686299
-0.0727385
-0.0828449
-0.0776442
-0.0768661
-0.073923
-0.0731994
-0.0695001
-0.0778922
-0.0581208
-0.0725894
-0.0725719
-0.0778184
-0.0791741
-0.0522549
-0.083409
-0.0735316
-0.091912
-0.069972
-0.083683
-0.0588831
-0.054362
-0.0877177
-0.0542005
-0.0959993
-0.0620319
-0.0923863
-0.030031
-0.141507
-0.0508606
-0.0885992
-0.0938499
-0.0732277
-0.0761545
-0.0395326
-0.0922885
-0.0598176
-0.0771322
-0.105325
-0.0252992
-0.0605706
-0.0938002
-0.133356
-0.0655295
-0.0580347
-0.0655282
-0.0809714
-0.0357676
-0.000913853
-0.0820914
-0.0513118
-0.0988997
-0.0927485
-0.00841666
-0.0795278
-0.0967683
-0.0813394
-0.0504225
-0.0585879
-0.051301
-0.05585
-0.12716
-0.0939116
0.0325231
0.0133792
-0.0143604
-0.180527
-0.15522
-0.090955
-0.0915084
-0.0450928
-0.0854404
-0.0499317
-0.0921339
-0.118304
-0.103951
-0.0131024
-0.0741955
-0.108135
-0.0686561
-0.0234522
-0.0847014
-0.0452026
-0.114621
-0.0769891
-0.0803066
-0.0697372
-0.0497856
-0.126918
-0.0713778
-0.0641157
-0.12506
-0.0749533
-0.0962873
-0.0334179
-0.025181
-0.0777356
-0.0873966
-0.0641868
-0.0350152
-0.0535127
-0.0860694
-0.0901385
-0.100978
-0.124677
-0.0804194
-0.154571
-0.0700753
-0.0783627
-0.0719796
-0.0834528
-0.108456
-0.0228315
-0.0185753
-0.0374956
-0.0810101
-0.0921672
-0.0329167
-0.156255
-0.0928238
-0.0756993
-0.103895
-0.119775
-0.0759889
-0.131158
-0.119999
-0.116832
-0.0474473
-0.00943264
-0.150732
-0.0437963
0.0173419
-0.101787
-0.0104672
-0.0649207
-0.04346
-0.182374
-0.172576
-0.0572648
-0.0791661
-0.0711485
-0.102631
0.0465825
-0.117143
-0.0924171
-0.0573881
-0.0840423
-0.0542014
-0.0927273
-0.0964125
-0.105347
-0.0739948
-0.0872738
-0.0716629
-0.0587573
-0.0614744
-0.0690951
-0.132884
-0.0366795
-0.101685
-0.097801
-0.0344132
-0.0874138
-0.0798208
-0.0644265
-0.00743228
-0.0402174
-0.0556489
-0.170608
-0.162414
-0.0696439
-0.108557
0.0239037
-0.0367583
-0.117982
-0.0349166
-0.0920671
-0.10647
-0.0758499
-0.0430487
-0.0484068
-0.0895443
-0.0538053
-0.0753231
-0.130002
-0.0403686
-0.00238507
-0.122079
-0.156418
-0.124609
-0.0517104
-0.0711222
-0.0647487
-0.0877597
-0.0938154
-0.0737351
-0.03598
-0.0735712
-0.0721718
-0.0724384
-0.0725089
-0.0818102
-0.0764686
-0.0849536
-0.0745049
-0.0373364
-0.0921698
-0.00757068
-0.0755441
0.0560176
-0.0838334
-0.0720367
-0.0926086
-0.0908153
-0.140479
-0.0379759
-0.0335628
-0.139254
-0.124166
-0.0951393
-0.00919268
-0.0451114
-0.0783707
-0.0631492
-0.0297768
-0.0939448
-0.0940153
-0.0746214
-0.00157275
-0.144298
-0.0669312
-0.0709033
-0.0748958
-0.113338
-0.0924857
-0.108544
-0.0794435
-0.0536909
-0.0881678
-0.0603498
-0.0291506
-0.157442
-0.0596501
-0.0379534
-0.112115
-0.0312482
-0.0467888
-0.0905494
-0.0922602
-0.0445244
-0.0787206
-0.0805913
-0.0819894
-0.0726504
-0.0520018
-0.0739461
-0.0783188
-0.077048
-0.0780069
-0.0848846
-0.0383561
-0.0331295
-0.0626358
-0.101462
-0.102289
-0.102767
-0.0832157
-0.115597
-0.087191
-0.109037
-0.0583217
-0.0189448
-0.0769725
0.016546
-0.0668208
-0.106284
-0.0577546
-0.0755078
0.000292662
-0.105391
-0.0637783
-0.085528
-0.0650528
-0.0917297
-0.0758889
-0.0719041
-0.0802012
-0.0692916
-0.0537278
-0.0683778
-0.0706267
-0.066381
-0.0962266
-0.0331643
-0.0876619
-0.0777792
-0.00368432
-0.0524416
-0.10709
0.0190501
-0.0460994
-0.0197004
-0.104469
-0.0931618
-0.103997
-0.151397
-0.0602029
-0.0730135
-0.0992815
-0.0841184
-0.0714482
-0.107016
-0.0344717
-0.119188
-0.0550546
-0.0776145
-0.0339696
-0.0516115
0.00410374
-0.127107
-0.0659064
-0.113571
-0.0955098
-0.0878046
-0.0633363
-0.0935103
-0.0439467
-0.0949962
-0.0995616
-0.0993666
-0.0515457
-0.0137406
-0.0845767
0.00448922
-0.0902401
-0.0989813
-0.0564753
-0.0660439
-0.123698
-0.0622222
-0.0238693
-0.0758971
-0.0935694
-0.0129123
-0.0601643
-0.0964436
-0.106339
-0.0473181
-0.0808288
-0.0721639
-0.10682
-0.103071
-0.0922468
-0.0897738
-0.0591328
-0.112815
-0.0905645
-0.0325876
-0.126166
-0.0884337
-0.133015
-0.0210293
0.00324157
-0.116527
-0.113626
-0.0676082
0.0582531
-0.0559993
-0.0829219
-0.0683032
-0.0548157
-0.0664171
-0.0931436
-0.0662029
-0.0850296
-0.0663764
-0.0691676
-0.0670655
-0.0734567
-0.0780264
-0.0998973
-0.0399847
-0.0777674
-0.0677579
-0.134612
0.00902669
-0.0796698
-0.0685589
-0.0989356
-0.111748
-0.0409137
-0.0097045
-0.0292724
-0.0730153
-0.139085
0.092717
-0.0620649
-0.0678657
-0.053887
-0.0963447
-0.0793007
-0.0391528
-0.152411
-0.0925536
-0.147923
-0.0012458
-0.0511638
-0.0938508
-0.0378557
-0.0681176
-0.0802966
-0.127019
-0.132778
-0.0762162
-0.0247456
-0.0819261
-0.0677283
-0.162234
-0.0295719
-0.0631042
-0.0773539
-0.0483298
-0.0532196
-0.111875
-0.0724896
-0.0664281
-0.0892471
-0.0927117
-0.108665
-0.0821026
-0.0846267
-0.0663935
-0.121115
-0.0563116
-0.0665193
-0.0965
-0.0668338
-0.088111
-0.061524
-0.0880425
-0.0722253
-0.0603332
-0.0755903
-0.0740062
-0.11277
-0.145667
-0.0591643
-0.0600264
-0.084728
-0.0947421
-0.066507
-0.0894704
-0.0772879
-0.0211429
-0.0507059
-0.0685164
-0.103084
-0.0396183
-0.0771631
-0.053024
-0.0557833
-0.0931654
-0.0861575
-0.0716217
-0.105425
-0.096058
-0.0928813
-0.0829168
-0.103297
-0.0923459
-0.0899297
-0.0816055
0.0140097
-0.0314755
-0.0706625
-0.0685051
-0.0287041
-0.062456
-0.0896656
-0.115745
-0.0871778
-0.0410872
-0.094044
-0.0864287
-0.0640086
-0.0991292
-0.0548146
-0.126518
-0.084749
-0.0532383
-0.00899469
-0.0871388
-0.0415887
-0.0586432
-0.112434
-0.103643
-0.0820788
-0.081663
-0.0799902
-0.114866
-0.117251
-0.0773979
-0.106932
-0.0943395
-0.0327711
-0.117323
-0.0377019
-0.0402292
-0.13884
-0.0364189
-0.0434605
-0.134122
-0.0727933
-0.0207924
-0.0934831
-0.18324
-0.0581531
-0.0779423
-0.0245704
0.0388789
-0.0725791
-0.0176821
-0.100075
-0.0798621
-0.0968817
-0.0608589
-0.114601
-0.0923117
-0.0339102
-0.0275742
-0.0431063
-0.100818
-0.0845454
-0.08988
-0.0641368
-0.0736598
-0.0382506
-0.117789
-0.154789
-0.0560391
-0.0788888
-0.102252
-0.106828
-0.0615212
-0.0925476
-0.0800327
-0.082793
-0.0381247
0.0295368
-0.0948374
-0.119873
-0.0645014
-0.0676514
-0.109121
-0.0540909
-0.0706028
-0.0851047
-0.0627402
-0.0773506
-0.116579
-0.0859201
-0.141145
-0.184923
-0.0906182
-0.0993603
-0.0423212
-0.072748
0.0679704
-0.137047
-0.111074
-0.120039
-0.0575867
-0.0890581
-0.0962431
-0.0840044
-0.124988
-0.107079
-0.0968144
-0.0232013
-0.0828705
-0.048032
-0.0493987
-0.0915507
-0.15398
-0.110711
-0.113356
-0.0630006
-0.0452857
-0.0781167
-0.0432412
-0.129488
-0.108254
-0.0665047
-0.03797